LAMMPS data file via write_data, version 31 Mar 2017, timestep = 3060000

1000 atoms
2 atom types

-4.7050000000000001e+00 4.7050000000000001e+00 xlo xhi
-4.7050000000000001e+00 4.7050000000000001e+00 ylo yhi
-4.7050000000000001e+00 4.7050000000000001e+00 zlo zhi

Masses

1 1
2 1

Pair Coeffs # lj/cut

1 1 1
2 0.5 0.88

Atoms # atomic

995 2 -4.1128320597041972e+00 -3.6700029231377180e+00 -3.8212538629904791e+00 1 2 -2
781 1 -2.7679721565537005e+00 -1.4706812116334109e+00 -1.3630731184298818e-02 0 0 0
398 1 -3.1955718638526158e+00 -3.5349479317150427e+00 -3.7356891955653833e+00 2 1 1
208 1 -4.1035848374354531e+00 -3.0949447911963746e+00 -3.1917208571207629e+00 1 0 0
796 1 -4.2120595823679965e+00 -4.3530911316224792e+00 -3.2686300203037777e+00 1 1 0
471 1 -2.2801773072623712e+00 -3.2304259577917329e+00 -4.1387555542681742e+00 0 0 0
314 1 -2.5907561079355905e+00 -4.2607308515159801e+00 -4.3239585598271173e+00 1 0 -1
736 1 -1.9310187896077040e+00 -4.0411721820953321e+00 -3.4969034825952612e+00 -1 0 1
381 1 -4.5738179958142435e+00 -4.6432265768341923e+00 -8.9645698020646736e-01 1 1 1
918 2 -1.1172906271304683e+00 -3.7843309501433473e+00 -3.8548488132190912e+00 -1 1 -1
331 1 8.6601705594279865e-01 -7.1262193586664957e-01 -4.6131815060703945e+00 0 -1 2
641 1 -2.9829743358906879e-01 -3.5768032103603145e+00 -3.9610930998590508e+00 1 1 -1
715 1 -9.4647874539300825e-01 -4.3009876786046446e+00 -3.1821766211403606e+00 0 1 1
982 2 8.9562683454313591e-02 -3.9827732157637157e+00 -3.3106124646891897e+00 -1 -2 1
326 1 4.4148288595704843e-01 -4.3026436933412624e+00 -4.0826087524072783e+00 1 1 0
514 1 7.9151451270651263e-01 -3.3914025450255418e+00 -3.8151006329514985e+00 1 0 1
878 2 1.2349579498409584e+00 -4.2609471397948164e+00 -3.6990592502560551e+00 -1 1 1
24 1 3.6397352403819001e+00 -2.2195047338280235e-01 -3.0014095086516175e+00 0 0 0
632 1 1.9469000365363358e+00 -4.1305405138355207e+00 -3.3075240392578307e+00 -1 0 2
754 1 2.7042386696468044e+00 -3.8514951482397772e+00 -3.9247310423152801e+00 0 2 0
330 1 4.5960850231765731e+00 -4.1835512269612520e+00 -4.0895898483089743e+00 -2 -2 1
442 1 3.5395477100769392e+00 -4.3228016723171914e+00 -4.1692368875327244e+00 -1 1 -1
125 1 3.6191722427361834e+00 -3.2479170094716010e+00 -3.9533661446339874e+00 1 0 0
19 1 4.4268140760477337e+00 -3.5947006868544404e+00 -3.2567450645208131e+00 -2 1 0
516 1 3.5279228672975629e+00 -4.0704530654644469e+00 -3.1159000552439897e+00 -2 0 1
47 1 -3.8214212441027557e+00 -2.6838669129952293e+00 -4.2237926603066862e+00 1 -2 1
668 1 -4.3760092626707685e+00 -2.0691508816877744e+00 -3.1563797838002099e+00 1 0 0
455 1 -3.2678900349946884e+00 -2.5023167383312925e+00 -3.0944865125093690e+00 1 0 0
2 1 -4.5927903590710990e+00 -1.9998903627477862e+00 -4.2347988830392511e+00 0 1 0
303 1 4.6927679800964359e+00 -3.0753988142283246e+00 -4.0490354929915124e+00 -1 1 0
49 1 -3.2163261526250415e+00 -1.8734291663381124e+00 -4.0857459551649731e+00 0 -2 0
954 2 -3.0493568735707943e+00 -2.7387650052230357e+00 -3.9452398946348519e+00 1 0 0
773 1 -2.3511858968138841e+00 -2.3695289278812126e+00 -3.6270318605258312e+00 0 0 0
787 1 -1.8615010506941012e+00 -2.2095965242801254e+00 -4.4661218400016152e+00 0 1 1
397 1 -1.5032237725944551e+00 -3.0459829479174561e+00 -3.3176042153157645e+00 -1 0 0
741 1 -1.2024126356041105e+00 -3.0858737928123219e+00 -4.3543307209317756e+00 1 2 0
305 1 -5.4466877693559457e-01 -2.6953923227374528e+00 -3.4958086033992490e+00 0 0 -1
635 1 -1.3331774268459307e+00 -1.9948876288479778e+00 -3.5974056480113608e+00 0 1 1
99 1 -7.5892041320763759e-01 -2.0680094584431670e+00 -4.4985546313947635e+00 0 -1 1
797 1 2.5137436030338023e-01 -2.4714808203314091e+00 -4.2569402312328908e+00 0 0 1
453 1 1.2176626365630436e+00 -2.3856594497863095e+00 -3.8328965056240487e+00 -1 1 0
62 1 4.1573978525283101e-01 -2.2722731731954933e+00 -3.2750143071204856e+00 0 0 0
98 1 2.6803679598199232e-01 -3.2371128522358017e+00 -2.8749455531080477e+00 -1 0 0
966 2 1.4976847817275041e+00 -1.6660304352888604e+00 -3.2653329443763552e+00 0 2 1
340 1 1.8979379492517987e+00 -3.1151045538378783e+00 -3.8632208598517210e+00 -1 1 0
277 1 2.9320935927809155e+00 -2.5562088727716219e+00 -3.7070819209141614e+00 1 0 0
299 1 2.1837631083596816e+00 -2.3278170213676188e+00 -4.4110507544189987e+00 -2 -1 1
322 1 2.5051444004680810e+00 -1.6233936062217795e+00 -3.5883953212366397e+00 2 0 1
445 1 3.1754746042775319e+00 -1.7740141305295647e+00 -4.4345517599097350e+00 0 1 -1
520 1 4.0423603649583573e+00 -2.2333585391461832e+00 -3.6363934474873325e+00 1 -2 -1
991 2 3.2760500375770927e+00 -1.8272455321370014e+00 -3.4132190099234752e+00 2 0 0
822 2 3.9962147401866810e+00 -1.5625677061134033e+00 -4.2738943565564727e+00 -1 -1 -1
803 2 -3.9628753304404589e+00 -1.3415676969151384e+00 -4.3102117170468466e+00 0 0 2
205 1 -4.0924742654904724e+00 -4.1075833594588018e-01 -4.1689079135341993e+00 1 1 0
578 1 -3.7728258596657405e+00 -1.2570970611159304e+00 -3.3964090099428614e+00 2 0 -1
625 1 -3.1575788241009466e+00 -8.3121438587250274e-01 -4.2765713657072828e+00 0 -2 2
792 1 -2.8817294598037093e+00 -4.5511449221690436e-01 -3.1633075090715681e+00 1 0 0
535 1 -2.2244093364406927e+00 -1.2627653758419377e+00 -3.9889780337854304e+00 0 0 0
597 1 -2.8181556516006712e+00 -1.5022132630591130e+00 -3.1697006637169700e+00 -1 1 0
441 1 -2.0097272844297307e+00 -1.5368082338913192e-01 -3.6540623739666511e+00 1 1 0
920 2 -1.1682528371357539e+00 -1.5549432122424389e-01 -3.9891181906906619e+00 -1 -1 0
737 1 -3.5069905170880022e-01 -1.5495974187299271e+00 -3.7108153536169168e+00 -1 0 0
608 1 -1.2368291502912261e+00 -8.7040190547132124e-01 -3.5556967614530222e+00 1 0 -1
417 1 -3.8266129497576923e-01 -3.5422200897135614e-01 -3.6036103888543995e+00 -1 -1 0
932 2 -1.3859810479269166e+00 -1.4165825849353657e+00 -4.3008396486919400e+00 0 0 -1
325 1 -6.9650298880825612e-01 -9.3263316763176773e-01 -4.5031121884802099e+00 0 1 1
852 2 3.0845109818728504e+00 -4.3861640145934206e+00 -2.9325202728031524e-01 -1 -3 0
907 2 1.6473819295965064e-01 -8.8306848939837579e-01 -4.0058393297171691e+00 -1 -1 2
639 1 8.0558242800834190e-01 -1.3942924039687978e+00 -3.8003730988477487e+00 0 0 2
131 1 7.3152995924539921e-01 -7.7007378127723070e-02 -3.6572770076260874e+00 1 0 2
167 1 -3.6247497952071117e+00 -4.4243957497681219e+00 -4.0890311578511902e+00 2 -1 -1
612 1 -3.6663715158955235e+00 -4.4791925788429481e+00 -2.8626570321127481e-01 0 0 1
561 1 1.4668329739491268e+00 -7.4843631635203911e-01 -3.2600396562772773e+00 -1 0 -1
507 1 1.7651115730390647e+00 -1.1940973206076937e+00 -4.1930682402598229e+00 -2 -1 1
782 1 2.6574288404723658e+00 -8.0086474176955813e-01 -4.3902806756088024e+00 0 2 1
216 1 2.5061493039945657e+00 -6.1149877972332101e-01 -3.4095361928635608e+00 0 0 0
78 1 3.4694616899299682e+00 -2.2810822538847639e-01 -7.8156980225021622e-01 -1 -1 -1
307 1 1.3569185712460234e+00 -4.0035595052742838e+00 -4.5297478980596004e+00 1 1 0
170 1 4.5673133003486317e+00 -1.2036398493403409e+00 -3.6293252021213203e+00 0 -1 -1
64 1 4.3201939948714836e+00 -1.1563975211358138e-01 -3.8725683490171972e+00 1 -2 -1
746 1 3.5106651435492831e+00 -1.0355890538402603e+00 -3.6948493849246535e+00 -1 0 1
661 1 -4.3961954477729899e+00 -3.6871468173988671e+00 -2.3079372822229858e+00 2 1 2
91 1 -3.4167367407353058e+00 -3.7859260936909580e+00 -2.6440842833426159e+00 2 1 1
906 2 -4.5836513193942947e+00 -3.0223062412333013e+00 -1.7718696752625878e+00 0 3 0
566 1 -3.8186317876075528e+00 -3.4522952138256962e+00 -1.3988002541226356e+00 1 0 1
206 1 -2.5067716280496057e+00 -3.2835915583970552e+00 -2.9866082071325302e+00 -1 0 0
713 1 -2.3205197957591976e+00 -4.1249348630468159e+00 -2.4319836991380677e+00 0 -1 0
361 1 -2.7843013776858663e+00 -3.2163790989764345e+00 -1.9502240883709596e+00 0 0 1
448 1 -3.0792163628587810e+00 -4.2217195536206358e+00 -1.6941033432865229e+00 -1 1 1
491 1 4.6144368585037592e+00 -1.7575928812746375e-02 -1.1931911024805597e+00 0 0 1
832 2 -1.7875370876838477e+00 -4.0828822489296179e+00 -1.7444939572804929e+00 0 -2 0
927 2 -1.4868369977717042e+00 -3.9472540856641412e+00 -2.7274242313763146e+00 0 0 2
155 1 -7.2220165720199470e-01 -3.3857387613280032e+00 -2.6917282232672202e+00 -1 -2 0
682 1 -2.9078656354928936e+00 -3.8160094343266655e+00 -5.6818573538798774e-02 1 -1 0
567 1 -7.4329383444419483e-01 -3.7142936600668555e+00 -1.6885078697332800e+00 -1 0 -1
74 1 -1.1036325943976609e-01 -4.2042930752520471e+00 -2.4290079991991300e+00 0 1 0
493 1 8.6720656142834840e-01 -4.1179616832544781e+00 -2.9355961925067420e+00 0 2 1
539 1 1.0535700665541243e+00 -4.3899141868437193e+00 -1.8022774450509165e+00 1 0 2
992 2 1.0231135102660418e+00 -3.4991664055145897e+00 -2.3186316220719276e+00 -1 0 -2
478 1 1.3605561277425029e+00 -3.3648370229510056e+00 -1.4797528748836088e+00 -1 2 0
512 1 1.4575380575474612e+00 -3.1339271708747081e+00 -2.9546482338735971e+00 -1 -1 1
645 1 3.4633246011007113e-01 -3.4695905430127234e+00 -1.7513477446683332e+00 1 0 0
529 1 1.7584619591981960e+00 -1.6542636806694171e+00 -5.2963773298885172e-02 0 2 -1
856 2 2.7075085925670050e+00 -3.9823794621923438e+00 -3.0003897029035875e+00 -3 1 -2
712 1 1.8372925213914251e+00 -3.8864980193917957e+00 -2.3475187005066398e+00 0 1 1
657 1 2.8747342440493435e+00 -3.6760120963124168e+00 -2.2100628380310630e+00 2 0 0
26 1 2.5440029631625243e+00 -3.1462934646954763e+00 -2.9723065722051909e+00 0 0 0
786 1 3.9720638450334831e+00 -3.6421681463184177e+00 -2.1218860728526590e+00 -1 -2 0
901 2 4.3582614942828277e+00 -4.2608193574218953e+00 -2.7225987691865869e+00 0 0 2
257 1 -3.7025582034754709e+00 -2.8221991292013646e+00 -2.2805721273638868e+00 1 -1 0
898 2 -4.2351805176710409e+00 -2.1455264614852143e+00 -2.3067824659369762e+00 -1 0 -1
573 1 -3.5477782007942906e+00 -1.7512350440349100e+00 -2.4808886886409423e+00 0 2 1
500 1 -1.6512599347938954e+00 -3.2924160642400042e+00 -2.1634974360689534e+00 0 1 -1
337 1 -2.3743709141027298e+00 -2.3102482474736972e+00 -2.5401185956677454e+00 0 1 1
401 1 -1.8079876873923637e+00 -2.0034717606658261e+00 -1.6745285288283975e+00 1 0 1
405 1 -1.8077222373662560e+00 -1.4297996952481689e+00 -2.8863021383081753e+00 0 1 0
35 1 -1.1773440874432928e+00 -2.3566444848863797e+00 -2.5681254305397627e+00 1 -1 1
677 1 -1.9400066563445575e-01 -2.5048705901790194e+00 -2.2655269499492880e+00 1 1 0
92 1 -7.0351512028640051e-01 -1.7351136850173672e+00 -1.7582580771311032e+00 1 0 0
838 2 -9.1024667524081970e-01 -2.8849481519815625e+00 -1.8902073468241896e+00 1 0 1
631 1 9.2531945969660445e-01 -2.6167606513135762e+00 -2.2802080254523207e+00 0 1 0
871 2 8.4828360191224889e-02 -1.6134388194226748e+00 -2.4265988625244574e+00 0 -1 0
179 1 4.2793037135199724e-01 -1.8537606862444729e+00 -1.6443717616970988e+00 0 0 0
553 1 2.0404798210485540e+00 -2.2334480724460719e+00 -2.9479404184244618e+00 0 1 1
239 1 2.0353121825865466e+00 -2.8030430076600550e+00 -2.0859885503045152e+00 0 0 -1
369 1 2.4958036144118938e+00 -1.9505109918430821e+00 -1.8401629199994014e+00 1 1 0
323 1 3.0500479257639794e+00 -2.1452704924729944e+00 -2.6620292394979819e+00 1 0 -1
865 2 1.6578148539486244e+00 -1.9870955905012266e+00 -2.2441450449473912e+00 -1 -1 1
624 1 3.3346362790258213e+00 -2.7540390280733238e+00 -1.8945008883983998e+00 0 0 -1
734 1 4.5832292847918445e+00 -2.7477676134547058e+00 -2.5142565930423562e+00 -1 -1 -1
601 1 4.5606530601567803e+00 -1.7807510352903917e+00 -1.8256439358413041e+00 -1 1 0
17 1 3.6544923345018367e+00 -2.9670900860975187e+00 -2.9394699570737739e+00 1 0 -1
255 1 3.9997499021003065e+00 -1.6037129091450095e+00 -2.8023881449891790e+00 0 2 0
972 2 3.9027248067096765e+00 -2.2423290873919091e+00 -2.2975310630814683e+00 0 0 -1
168 1 3.5241001107902994e+00 -1.6580082928573265e+00 -1.8485716223355149e+00 0 1 1
118 1 -4.2757896106845088e+00 -3.1116216361424087e-01 -3.1377561025619962e+00 1 -1 0
295 1 -3.5460857757160436e+00 -7.0563089775625998e-01 -2.3644879348097487e+00 -1 0 2
518 1 -4.4986364667362979e+00 -1.2044948866096381e+00 -2.6165334861339997e+00 0 0 -2
733 1 -4.3420000724109045e+00 -8.3984901599504636e-01 -1.6935182292779589e+00 1 0 0
365 1 4.2130532186293426e+00 -9.3631634548579112e-01 -1.2602697103814200e+00 0 1 1
568 1 -2.0762679254369321e+00 -4.3871906230439051e-01 -2.4570579049368426e+00 0 -1 1
213 1 -2.5703248219714037e+00 -1.3126378499910478e+00 -2.1530750504028608e+00 1 0 0
814 2 -2.1068214037855597e+00 -6.6989763539813507e-01 -1.6250006350617083e+00 0 -1 2
895 2 -1.2657116890777547e+00 -7.5166762017691369e-01 -2.7235325443323308e+00 1 0 1
156 1 -6.9579955826779027e-01 -1.3795328323694247e+00 -2.7032249931171375e+00 0 -1 1
550 1 -1.4076134154015967e+00 -1.0234849170176474e+00 -1.9498328556223208e+00 1 1 0
176 1 -5.4605883867028671e-01 -4.1669485368529230e-01 -2.4665539996232395e+00 1 0 0
419 1 -1.2340428303402469e+00 -6.3990847172649537e-02 -1.6621975752126641e+00 0 0 0
58 1 1.0354063455715421e+00 -1.4340403396708805e+00 -2.5938738016192753e+00 -1 1 -1
46 1 9.4350784767710549e-01 -1.7159721887660404e-01 -2.5455791084517454e+00 -1 -1 0
22 1 2.1443133778321283e-01 -8.6607667825276091e-01 -2.9958990772275653e+00 0 0 -1
33 1 2.7105162808744410e-01 -7.7887817410932036e-01 -1.9773429265640847e+00 0 0 1
488 1 3.0535495930431633e+00 -4.5289393315797080e+00 -1.2305918574574328e+00 0 1 -3
939 2 -3.1050406864189952e+00 -4.5351456276221205e+00 -2.5414463345475831e+00 -1 1 0
700 1 3.4719308492383849e+00 -4.5970644844688371e+00 -2.1857217147241572e+00 0 1 -1
845 2 1.5505286403976475e+00 -8.0928610633761899e-01 -2.2920709187362909e+00 0 0 1
975 2 2.8212910505847932e+00 -3.2149202157190127e-01 -2.5858394894078134e+00 -1 0 0
752 1 2.2345469500021462e+00 -6.4221222038639991e-01 -1.8198039963928769e+00 1 0 0
217 1 2.1072670190297096e+00 -1.2905911429550776e+00 -2.6478123380574368e+00 -2 0 2
226 1 -1.1872357916524365e+00 -4.6369537475251796e+00 -2.1668952732232771e+00 0 0 1
853 2 4.3038405406291727e+00 -7.0714674455996107e-01 -2.9512078112389140e+00 1 -3 1
212 1 3.0910843453547687e+00 -1.1365621641078918e+00 -2.7151125920666948e+00 0 2 2
642 1 3.3576471482263490e+00 -5.3438564863660465e-01 -1.9004524671639802e+00 0 -1 1
846 2 4.0059049897828869e+00 -9.8683734079549146e-01 -2.1697849743130577e+00 -2 -1 1
653 1 4.3231927603275588e+00 -1.8011337384388537e-01 -2.2530688049693222e+00 -3 0 0
352 1 3.5849031160037081e+00 -1.0573439788554202e+00 -9.3794282997584230e-02 0 0 0
936 2 -4.1793966795532738e+00 -4.3108339325258758e+00 -1.6443346782322028e+00 -1 0 0
862 2 -4.1684855248219392e+00 -3.8517525116717009e+00 -7.3759914282783789e-01 1 1 1
720 1 1.7193668443054968e+00 -1.8230179027442822e-01 -4.1079877580228867e+00 0 1 1
88 1 -1.9832629957565031e+00 -3.2660501965792692e+00 -1.6109472393174490e-01 0 0 -1
979 2 -2.1967871383048374e+00 -4.2295190669140990e+00 -1.7680258959638859e-01 0 2 1
57 1 2.4816824032856579e+00 -8.9858243099974744e-01 -2.3469711115758789e-02 -1 0 0
870 2 -3.2041329801915670e+00 -3.9756083021895674e+00 -8.8909127547178524e-01 -1 1 -1
274 1 -2.2054145740262125e+00 -3.8328070919019113e+00 -1.0841016407296755e+00 0 1 0
110 1 -2.9749618528199622e+00 -3.1003393837241902e+00 -7.8615161714154624e-01 1 0 0
893 2 2.4465397613445914e+00 -5.5834759818391810e-01 -9.3673155033652644e-01 0 -2 0
934 2 -6.0560171688346687e-01 -4.5116557185382744e+00 -3.2773150713201260e-01 -2 0 1
173 1 -8.0003842702972716e-01 -4.6119990692490065e+00 -1.1568267154843681e+00 1 0 0
85 1 -2.7912902416748964e-01 -3.7715763209415210e+00 -7.5132871074005558e-01 1 0 -1
990 2 -1.1854494087164376e+00 -3.9232734344222022e+00 -7.4876078801212631e-01 -2 1 1
465 1 1.8910379867488708e-01 -4.5526209226834897e+00 -1.3704860227537536e+00 1 1 -2
357 1 7.2831018948152504e-01 -3.8395827432281542e+00 -7.5460224651504226e-01 0 1 0
751 1 2.5419152154452984e-01 -4.5831185844026177e+00 -2.7959228429305311e-01 1 -1 -1
620 1 1.7940358585964336e-01 -1.5041467932698349e+00 -4.5874042841343110e+00 -1 0 2
431 1 -1.6716598379123975e+00 -5.4392777247814195e-01 -4.6383292034548633e+00 0 0 0
806 2 1.4814458726659934e+00 -4.0447182741938708e+00 -1.0789662756242060e+00 1 -1 -1
233 1 2.1145446434929971e+00 -4.4339519062179367e+00 -5.7506824738816487e-01 -1 1 1
96 1 2.3514884796580726e+00 -3.7444812606356961e+00 -1.3867341255257553e+00 0 0 1
363 1 2.8346862521116285e+00 -3.5188507151100565e+00 -3.5887147757650650e-01 -1 -1 0
52 1 1.7039396503984470e+00 -3.3847668456857387e+00 -5.5751598067535257e-01 0 0 1
961 2 3.9560269957766998e+00 -4.2768556308408643e+00 -1.4096086899733453e+00 0 0 0
436 1 4.5381114991352405e+00 -3.6733325365439744e+00 -1.2144340446491202e+00 -1 1 -1
583 1 3.9353972732044236e+00 -4.3212337613892018e+00 -5.0607771421657866e-01 -1 2 1
256 1 3.4651675318033930e+00 -3.5207473843754946e+00 -1.1727660476230941e+00 2 0 1
997 2 4.2607387582463403e+00 -3.2890809741889724e+00 -4.8601041893123959e-01 -2 2 2
876 2 3.7084701351084404e-01 -1.9382043846360395e+00 -1.4972515523205768e-01 1 0 -1
726 1 -3.4204124853341260e+00 -1.3835439265129610e+00 -1.4918928391883417e+00 0 0 1
649 1 -4.3642499064175224e+00 -2.9566250433303103e+00 -6.6438549469829777e-01 1 0 0
800 1 -4.0310191422668646e+00 -2.3317182171421735e+00 -1.3767685057880747e+00 0 0 1
468 1 -3.3079034219770596e+00 -2.0280735171650095e+00 -7.3000698118675533e-01 1 1 0
988 2 4.6860332306125754e+00 -2.1581730139770148e+00 -7.7720585312192991e-01 -1 2 2
248 1 -2.9156433929410848e+00 -2.2575452931991373e+00 -1.6295519501153746e+00 0 0 0
820 2 -2.2017584990375423e+00 -2.7876935968121472e+00 -1.3984262679026169e+00 -1 -1 0
505 1 -2.2921140331281942e+00 -2.2617906364530751e+00 -7.7535023027811356e-01 0 2 0
768 1 -1.4230243226793726e+00 -3.1616966711483818e+00 -1.1326678262393828e+00 0 1 0
439 1 -1.1826346990970611e+00 -2.1132221436463019e+00 -8.5182541485110086e-01 1 1 -1
749 1 -3.9750932667828037e-01 -2.8024443578596827e+00 -1.2064944727909932e+00 1 -1 0
510 1 -9.6118756941871886e-01 -3.1325935109825687e+00 -2.3320894948991042e-01 -2 2 0
138 1 4.5032936880323700e+00 -4.6703432837752183e+00 -1.9523105445296274e+00 -1 0 1
522 1 3.5156039230207436e-02 -2.7671088233502870e+00 -1.3863034685225012e-01 0 0 1
555 1 6.2401726124596302e-01 -2.7356942580271815e+00 -1.0067909679223253e+00 0 0 -1
571 1 9.7034927405582427e-01 -1.7251875678470523e+00 -7.4897616906656417e-01 0 0 1
922 2 1.8855081165354681e+00 -2.2779201700635321e+00 -6.6930675088636649e-01 0 1 0
765 1 1.4190668157876816e+00 -2.2341070206574698e+00 -1.4210288501090647e+00 0 0 0
651 1 2.1182373716842497e+00 -1.4415844315630577e+00 -9.9280103629387983e-01 0 0 1
487 1 2.8319598113668478e+00 -1.8077894118194620e+00 -2.9802639089222660e-01 -2 0 -1
50 1 2.4734150941383284e+00 -2.7383108223222625e+00 -1.0880782113328353e+00 0 2 0
909 2 3.1961062120445778e+00 -2.0754458798501343e+00 -1.2341243143329630e+00 0 4 0
674 1 3.4210367170419378e+00 -2.6880926562276102e+00 -5.8128711655276288e-01 0 0 0
742 1 4.2072419969664265e+00 -2.6024583815110449e+00 -1.3365479129212665e+00 -1 1 0
72 1 3.8834072624664779e+00 -1.7879663128167798e+00 -7.3262940167901869e-01 -2 0 -1
377 1 4.6082745861954351e+00 -6.1516439636734765e-01 -3.1038426115074808e-01 -1 1 1
766 1 -4.2556988164369365e+00 -1.3659302464851311e+00 -8.2193297304062318e-01 1 0 1
359 1 -3.8165836786506042e+00 -1.8899549228320747e-01 -1.0141544705716912e+00 0 -1 1
993 2 -3.3407137546560493e+00 -9.2022621363877111e-01 -7.6549669244239604e-01 -1 0 0
304 1 -2.8885375729327958e+00 -4.5819962413984844e-01 -1.5855859440272326e+00 2 0 0
688 1 -6.1992903739433391e-01 -4.5717148400933398e+00 -4.1258049303638487e+00 0 1 2
830 2 -1.8162233898484725e+00 -1.5413360598100259e+00 -5.5038323597462491e-01 -1 2 0
28 1 -2.5014344497477894e+00 -1.3156857583259309e+00 -1.1344664162006191e+00 1 -1 0
178 1 -2.7006388186234296e+00 -4.0109361058926174e-01 -4.8889920510534263e-01 0 0 0
163 1 -1.6594564445554250e+00 -6.2363385086076606e-01 -9.1101762346452952e-01 -2 0 0
113 1 -2.8681166992299394e+00 -4.5064186756693436e+00 -3.3428158209980290e+00 0 -1 0
945 2 -1.2166964725215392e+00 -1.3444396463789838e+00 -1.1928679654928411e+00 1 -1 -2
250 1 -1.8888290911135736e-01 -1.7792331110009221e+00 -7.6987363875739467e-01 0 0 2
531 1 -1.0281357679255847e+00 -1.1444630879860345e+00 -2.9290621071579009e-01 0 2 -1
200 1 -2.7116680498265427e-01 -3.5543818322214410e-01 -1.7464587183374999e-01 -1 0 -1
611 1 -4.5315005901955552e-01 -7.7207916443957736e-01 -1.1599657233180309e+00 1 0 1
188 1 1.2116174627800529e+00 -1.1437005413259895e+00 -1.6042115440431812e+00 -1 0 0
136 1 5.4060849699529900e-01 -9.7645877071479315e-01 -2.2831132243385616e-01 -1 -1 -2
905 2 3.5360376866273691e-01 -1.1118650373840988e+00 -1.1498318594233807e+00 0 2 -2
739 1 4.7639411659376668e-01 -2.2814961465180203e-01 -1.0545392893901528e+00 0 1 0
407 1 -1.5651553646321383e+00 -4.1477486862090851e+00 -4.5118127581684311e+00 -1 1 0
663 1 1.5419255455584291e+00 -6.2490722337022708e-01 -6.1950000177185671e-01 0 0 0
172 1 3.0675739742659625e+00 -1.1162557138214020e+00 -1.1389453571927315e+00 0 0 0
680 1 1.9854195514097230e+00 -7.0104439925051032e-03 -2.5075558060925847e+00 0 0 0
732 1 1.1920769060212735e+00 -2.6237177367888425e+00 -1.1850393202681296e-01 1 0 1
485 1 -1.6671584808157116e+00 -4.6669259333788666e+00 -6.2995458507447033e-01 0 0 0
107 1 3.6750704615328234e+00 -6.2400391974216396e-01 -4.6508712205057039e+00 0 -1 -1
580 1 -2.7301291390603066e+00 -4.7046421572300785e+00 -8.1234863508499122e-01 0 1 1
598 1 2.5745055454341728e+00 -4.7029866053623950e+00 -2.5701537867281914e+00 0 0 0
894 2 -1.4763374091126871e+00 -4.6710742142784616e+00 -3.7856749148938715e+00 1 1 -1
207 1 4.6700033025287411e+00 -1.0210413485547247e+00 -4.6852323317511626e+00 -1 0 0
866 2 3.9232263678732151e+00 -1.2278555207127874e-01 -6.6295427484283197e-03 0 -1 2
343 1 2.8303470175457268e+00 -3.0591086180473304e+00 -4.7007154868165060e+00 -1 0 1
743 1 -4.2533784351665389e+00 -3.5040937595367692e+00 1.1065718947840975e+00 0 2 0
4 1 -3.4313198756592898e+00 -4.1230067232679799e+00 8.0390341400020715e-01 1 2 0
422 1 -1.6999750950572858e+00 -4.7003872217442666e+00 1.0667311133238790e+00 2 0 0
586 1 -4.6608366271467645e+00 -4.4817260204445395e+00 4.2758918476369496e+00 0 0 -2
864 2 -4.3302186719969313e+00 -4.3907273707091026e+00 9.6635846352995525e-01 -1 0 -2
21 1 -2.2306910443932724e+00 -3.8612922215919276e+00 6.7450456378177548e-01 0 0 -1
117 1 -1.7699745809939464e+00 -3.7914191044696022e+00 1.5508786500945893e+00 1 0 -1
950 2 -2.9255117020124435e+00 -3.3266364271299800e+00 5.9650302861979032e-01 0 0 0
174 1 -3.9859019319059499e+00 -2.1963068416227602e+00 8.1147841012221469e-03 0 -1 0
892 2 -9.4862436419784357e-01 -4.1080519110091140e+00 1.0218685566797319e+00 -1 3 0
523 1 -2.8567765579490151e-01 -3.8481700638862018e+00 2.8684748195366588e-01 0 1 2
391 1 -1.3148731520773278e+00 -4.1199281588442673e+00 1.8010800159225246e-01 2 1 1
744 1 -5.7761534385254942e-01 -3.3548230582704028e+00 1.4569689981458787e+00 -1 1 1
590 1 -2.1002681564271892e-02 -4.1828241958270658e+00 1.2765885222624140e+00 0 0 0
798 1 -3.1596273392309659e+00 -1.6451779468934222e-01 3.5859105186971543e+00 1 1 0
111 1 1.2718797680559510e+00 -4.1588376260595696e+00 1.1927714456815341e+00 -1 1 0
926 2 4.3233219077140406e-01 -4.1991093237317632e+00 5.3355357220578659e-01 -2 1 1
659 1 1.3516734139409354e+00 -3.1178697054256141e+00 1.0084908602995082e+00 0 1 0
186 1 1.2150892580668471e+00 -7.8210980992654791e-02 1.2630244399315360e+00 0 0 -1
660 1 -4.3127377627408974e+00 -2.7517652204259474e-01 3.5402478762000071e+00 0 1 1
187 1 2.0176061620400962e+00 -3.6825285384727962e+00 4.3803456710323746e-01 -1 0 -1
221 1 2.9382812773567766e+00 -4.2220461324234417e+00 5.7444139240962588e-01 -1 1 -1
415 1 2.3811581265303561e+00 -3.9422878470421359e+00 1.4167607345903765e+00 0 1 1
819 2 1.9753309295793122e+00 -4.4841615028549393e+00 6.7755361633797362e-01 1 0 0
824 2 2.8608891967187016e+00 -3.3603769000010764e+00 4.7300977367945501e-01 0 -1 0
281 1 3.3375363096435695e+00 -3.4717138027899841e+00 1.2441056188435935e+00 -1 0 1
446 1 4.1307908386323779e+00 -4.1334009751172740e+00 9.1643155268919407e-01 -1 0 0
144 1 3.6787102234888915e+00 -3.5009462777495512e+00 1.9114801519746707e-01 0 0 0
718 1 -9.5751754872260153e-01 -4.6094162415866862e+00 2.8352984538702914e+00 1 0 0
146 1 3.8008543825200443e+00 -2.5851802602600511e+00 4.6904152924184457e+00 0 0 0
816 2 -4.5129732735880230e+00 -2.9593075743335522e+00 4.6989029697549500e-01 3 -1 -1
51 1 -3.4972149249667108e+00 -1.7344665000478796e+00 7.5752393936000884e-01 -1 1 0
628 1 -4.4341791337582501e+00 -2.2471111692758035e+00 9.0200519144765223e-01 2 -1 -2
778 1 -3.5230168470079941e+00 -2.7100951206967006e+00 1.2080577983617105e+00 2 1 0
400 1 -2.8084042429814322e+00 -2.5069256916436280e+00 1.4252235089106829e-01 0 1 0
292 1 -2.2432588334820158e+00 -2.8005283139439321e+00 1.0343681539409966e+00 2 1 1
834 2 -2.5362188040028766e+00 -1.9872303261815223e+00 7.9660027000954314e-01 1 0 0
457 1 -1.7875087772318676e+00 -1.8196375379093479e+00 1.2239407420679000e+00 -1 0 0
780 1 -1.8243399495600594e+00 -2.0657890197249280e+00 1.8292435537970492e-01 -2 1 0
425 1 -1.2943849187841046e+00 -3.1616033356459456e+00 7.2134952590981605e-01 0 0 -1
929 2 -3.7550418454881823e-01 -3.0159658914658358e+00 6.3476476369668133e-01 1 -1 -2
13 1 -7.9189789350710049e-01 -2.3370743881691558e+00 1.4154521885955211e+00 1 0 -1
963 2 -1.5243113110221511e+00 -2.9036347469511665e+00 1.5052034359809068e+00 -2 2 1
293 1 -2.8319118612729319e+00 -2.4798508073140173e+00 4.6510298964841734e+00 -1 0 1
75 1 1.3174352895062733e+00 -3.3953884955870784e-03 2.0845299561588773e-01 1 -1 0
767 1 8.8313631560623509e-02 -2.2845862014799132e+00 8.0243097188794044e-01 0 -1 1
128 1 8.6858113533513426e-01 -1.6214065734047514e+00 5.3797420444362243e-01 1 2 0
528 1 3.2427076044065778e-01 -3.2409586433585886e+00 1.0967573194532141e+00 -1 1 1
958 2 9.1254817324807069e-01 -2.4749125013235620e+00 6.7336862929497854e-01 -1 0 -1
329 1 6.9180785462246530e-01 -2.0653685516945259e+00 1.5585949573028188e+00 1 1 0
509 1 2.6556579267657612e+00 -1.4034208177038959e-01 2.1034325179677240e+00 2 1 0
484 1 1.8024275748436469e+00 -8.3702962002066250e-01 3.3406533400800504e+00 0 1 0
294 1 1.6772576754900921e+00 -2.1501708307810223e+00 8.6761697246535707e-01 -1 0 0
835 2 2.4331170312180834e+00 -2.0068857951496670e+00 5.0066511465145502e-01 -1 -1 -2
25 1 2.3352637383834334e+00 -2.9310671726237052e+00 1.0960895998316647e+00 -1 0 -2
638 1 2.3277615549225668e+00 -1.7592524664656377e+00 1.5174828921621422e+00 1 1 2
670 1 2.6614367204958485e+00 -4.4626635765114502e+00 4.6008091940803988e+00 2 2 -1
291 1 3.2467125081013437e+00 -2.4100246233732259e+00 1.5145239548236791e+00 -1 1 1
783 1 3.2487029789472657e+00 -2.5888603368595762e+00 5.0669352421269376e-01 -1 1 1
761 1 4.1870265844763619e+00 -2.9689199503291475e+00 1.0071689633341010e+00 -1 1 -2
603 1 3.9122855639341103e+00 -1.8918202650072171e+00 9.3223108303122193e-01 0 2 -1
159 1 1.2138302272066235e+00 -4.3629580540116661e+00 1.7585644550126170e-01 1 0 0
197 1 -3.4848470386876698e+00 -4.0499184739806804e-01 1.0591874807344610e+00 -1 -2 0
149 1 -4.3559470783725276e+00 -1.1855018150346994e+00 1.0929908679928020e+00 0 1 -1
664 1 -4.4419823251537975e+00 -3.2674911648774385e-01 5.0669226041993076e-01 -1 1 1
249 1 -4.6678018829885124e+00 -3.6751196894397364e+00 4.0761502695078000e-02 1 1 1
872 2 -4.2885679826146028e-01 -4.3173580623669894e+00 3.5001663803759353e+00 0 0 -3
818 2 -2.9882608187686333e+00 -6.7818322620535154e-01 3.4812496605483567e-01 1 0 0
69 1 -2.7098995252345515e+00 -1.1237439965235612e+00 1.0362629251695232e+00 1 0 0
521 1 -1.7807031580003556e+00 -5.8945069319056398e-01 1.3599913370717125e+00 2 0 -1
923 2 2.5312724943834014e-01 -1.8788804419425131e-01 1.5519457654494593e+00 0 1 1
577 1 -1.1092622755720931e+00 -1.2716618531110031e+00 7.7097378555387597e-01 0 0 -1
771 1 -6.5659692502846712e-01 -4.1575040677922803e-01 1.4876818499554740e+00 1 1 0
6 1 -2.4334258826375077e-01 -1.4657739045239544e+00 1.3063938416869085e+00 1 0 -1
833 2 -4.3805017572453075e-01 -7.3254459782725057e-01 7.5068742511001663e-01 1 1 0
222 1 -1.1798386418713709e+00 -3.3785298093228300e-01 4.9202347868483232e-01 0 -1 1
259 1 -1.9706402225266456e-01 -1.3825687081652469e+00 2.4700726193712941e-01 0 0 1
133 1 3.2613479293031524e+00 -4.6260436487347167e+00 1.4514071980327516e+00 -1 -1 -2
122 1 -7.9807293519588884e-01 -2.2216956860081223e+00 3.7699655443007463e-01 1 -1 -1
533 1 4.4120980508313029e-01 -6.0874824840889086e-01 7.7988500526939519e-01 0 0 -1
89 1 3.9119811046372548e+00 -1.5598491483921091e+00 4.2487300772700163e+00 0 1 1
16 1 1.7770718348049739e+00 -1.0514371193952092e+00 8.8149283968516923e-01 0 0 0
716 1 2.5804291270609045e+00 -6.9675689655563389e-01 1.2936440932200077e+00 -1 0 1
276 1 3.0328463774871590e+00 -1.4286955128206569e+00 6.6293100390299742e-01 1 2 0
482 1 3.2368804179634858e+00 -2.6721952606496879e-01 4.9608095518308670e-01 -1 1 -1
885 2 4.5786572373649932e+00 -2.8754730137765833e-01 1.2277585549955368e+00 0 -1 0
310 1 4.0882106899572870e+00 -8.5681761704769677e-01 6.9387318311479740e-01 -1 2 0
959 2 1.4494453713967337e+00 -5.3461841766923396e-02 3.5554157532560939e+00 1 1 1
112 1 -3.9859536755103968e+00 -4.4245462813961165e+00 2.5369238453705902e+00 2 0 0
392 1 -3.7528691510061885e+00 -3.4742542235179403e+00 2.0650941357204013e+00 1 0 0
458 1 -3.7524381473475796e+00 -3.1582726809462769e+00 3.0618019654155173e+00 0 1 0
469 1 -4.6345245449374515e+00 -4.2871258326972832e+00 1.8017623811870063e+00 3 0 -1
395 1 -2.8697400302722249e+00 -4.5722196183849864e+00 2.2256676948254950e+00 0 1 -2
692 1 -2.7993140397572160e+00 -3.6466376765671589e+00 1.5437491596589004e+00 -1 1 1
831 2 -2.2664440912251935e+00 -3.8535215385163655e+00 2.2297135053734944e+00 1 1 0
7 1 -2.2358376112362750e+00 -4.3203537187601029e+00 3.0152566062456336e+00 1 1 0
157 1 -2.8230886418642420e+00 -3.3503027356461499e+00 2.6271919859842074e+00 1 1 1
584 1 -1.9034730703995608e+00 -3.1887179519582656e+00 3.2317683467685487e+00 1 0 1
626 1 -3.1173192166459769e+00 -3.4639788193190149e+00 4.6171631324041531e+00 1 1 0