LAMMPS data file via write_data, version 31 Mar 2017, timestep = 200195

1000 atoms
2 atom types

-4.7050000000000001e+00 4.7050000000000001e+00 xlo xhi
-4.7050000000000001e+00 4.7050000000000001e+00 ylo yhi
-4.7050000000000001e+00 4.7050000000000001e+00 zlo zhi

Masses

1 1
2 1

Pair Coeffs # lj/cut

1 1 1
2 0.5 0.88

Atoms # atomic

338 1 -3.1324094717101914e+00 -4.2715840147840920e+00 -3.9313127801009604e+00 1 0 1
513 1 -4.1228474585804147e+00 -4.0638569650209195e+00 -3.4081539104028300e+00 1 0 0
739 1 4.6677803362310639e+00 -3.8757322956375826e+00 -8.4077477369341500e-02 -1 1 0
187 1 -3.4762958226926557e+00 -3.2584195974328991e+00 -3.9064276371371887e+00 0 0 0
250 1 3.7041154638441478e+00 -2.8014447962708102e+00 -1.0140061377765326e-01 -1 1 1
966 2 3.3598021971190826e+00 -4.4746708668632591e+00 -4.6960069385524879e+00 -1 2 1
542 1 -2.3166169992906593e+00 -4.3600030301636750e+00 -3.3657883181021209e+00 1 0 0
817 2 -3.1011743374825769e+00 -3.6840072652682947e+00 -3.3147628152430828e+00 1 0 0
149 1 1.6853001987047381e-02 -4.3080311134754794e+00 -3.1594796893366492e+00 0 1 0
873 2 -1.4488008636317711e+00 -4.3853805752959198e+00 -3.4599726897383967e+00 1 0 0
483 1 -6.9069300471597317e-01 -4.3122684229469685e+00 -3.8415994933164392e+00 1 0 0
923 2 -9.8366011581000501e-01 -3.1800002791416633e+00 -4.0557657193904397e+00 0 0 0
122 1 -4.2204324125611272e+00 -4.6003840865291528e+00 -4.3715079376376709e+00 1 1 0
367 1 -1.7513180177527716e+00 -4.1313051843354627e+00 -4.3650541297612770e+00 0 0 1
383 1 1.3524878458255918e+00 -3.8580561464586123e+00 -3.2407514793180927e+00 0 0 1
164 1 8.5702528480311191e-01 -3.5455532055103314e+00 -4.1581630562298075e+00 0 0 0
93 1 4.3987117976108914e-01 -3.4489560998327535e+00 -3.1513789632199205e+00 1 0 0
836 2 1.8713134361151570e-01 -4.0302945185921173e+00 -4.1386910053175887e+00 0 2 0
619 1 2.2067247070573957e+00 -3.4180760829379162e+00 -3.5446199689761917e+00 0 1 1
834 2 2.6073008252706189e+00 -4.0774074122884869e+00 -3.4320489988710055e+00 0 0 0
429 1 1.7974913525454346e+00 -4.1321812405824065e+00 -4.2116423763818549e+00 0 1 1
692 1 3.2318432720308574e+00 -3.8417374441591452e+00 -3.8953514688105830e+00 -1 1 1
881 2 4.0195412615558492e+00 -4.3886159484858993e+00 -3.3551482086748581e+00 0 0 0
797 1 4.3204631694458744e+00 -3.9813596258816628e+00 -4.2540430740928006e+00 0 1 1
749 1 4.0123682931924911e+00 -3.5112049736360533e+00 -3.4028990506855235e+00 0 0 1
681 1 4.4956382421951648e+00 -7.9387387535358411e-01 -1.9822099137782243e-01 0 0 -1
53 1 -4.5635069816330880e+00 -3.1140907099908319e+00 -3.8077090154008535e+00 0 1 0
23 1 -3.7847351583085640e+00 -1.9869229205102668e+00 -3.4123156196512361e+00 0 -1 0
982 2 -3.9595675702618918e+00 -2.8154596692369225e+00 -3.2721325352874611e+00 0 0 1
839 2 -4.1469553560020298e+00 -2.8056811193135154e+00 -4.5344528063817071e+00 1 0 0
376 1 -2.4101787807623420e+00 -3.3797431695091742e+00 -3.8697290303550034e+00 1 0 0
891 2 -2.4797068062349630e+00 -2.6017565860655822e+00 -4.1214033117836326e+00 -1 0 1
348 1 -1.7901133919360166e+00 -1.5977228975180759e+00 -3.3672590790036048e+00 0 0 0
588 1 -3.3754944055808922e+00 -2.3745219517463063e+00 -4.3481829166152499e+00 1 0 1
445 1 -2.7361936932974378e+00 -1.8521795737996114e+00 -3.7757546756354814e+00 0 0 0
534 1 -1.9006500462294469e+00 -2.6424225058081054e+00 -3.4212618142209057e+00 0 1 1
820 2 1.2766851019797392e+00 -5.3756260114758603e-01 -3.0189340404143117e+00 -1 -1 1
892 2 -1.2131263411987021e+00 -2.2609293930523950e+00 -3.6572561565180406e+00 0 2 1
447 1 -1.5773458206403383e+00 -2.7485465759706362e+00 -4.3975825359691338e+00 -1 0 0
128 1 -7.0830801887469019e-01 -2.8219820724502283e+00 -3.2197748277350970e+00 0 1 0
381 1 -1.3904639906985783e+00 -1.6522866565282366e+00 -4.3987981745089950e+00 1 0 0
481 1 -5.6922831613676639e-01 -1.6570503274498323e+00 -3.4621086807702115e+00 1 -1 1
316 1 -6.1272946178093268e-01 -2.2547074902458384e+00 -4.2774661861209253e+00 0 0 1
489 1 1.2724635914354956e+00 -2.8133964588626701e+00 -3.4508167346894667e+00 -1 1 1
115 1 4.3281325131081427e-01 -1.8029622764251507e+00 -4.0146728600304806e+00 -1 0 0
759 1 -1.6960847611156876e-01 -3.2095453543122701e+00 -4.0043646874449399e+00 1 1 1
415 1 1.4113240484664007e+00 -2.1867251989851884e+00 -4.3379821958440692e+00 0 0 1
962 2 4.3380533228375612e-01 -2.6476930834410504e+00 -3.7423296539876012e+00 0 0 1
882 2 1.0625610359952817e+00 -1.9659800590414196e+00 -3.2779305333718605e+00 0 -1 0
517 1 3.0036273203550241e+00 -1.9315863213074960e+00 -4.3977562148978437e+00 0 1 0
82 1 2.8873911782765487e+00 -2.8833160532723703e+00 -4.1896950249047116e+00 -1 0 0
313 1 2.2016111975559225e+00 -2.3161722202425810e+00 -3.6547039829791510e+00 1 -1 1
366 1 3.1570370930924971e+00 -3.0165707411753004e+00 -3.2662589505103634e+00 0 0 1
43 1 8.6481756802181620e-01 -9.5507362789647154e-01 -4.4996863506834917e+00 0 0 1
222 1 1.9984891879582685e+00 -3.1922247089354987e+00 -4.6603994239612945e+00 0 0 1
579 1 4.6724336164779361e+00 -2.1065538117185603e+00 -4.2216498512034208e+00 -1 0 0
295 1 3.8896548898050982e+00 -2.7595286274331627e+00 -4.0248648294967744e+00 0 0 2
451 1 3.3003075593902720e+00 -2.0340833460584626e+00 -3.3379640567311522e+00 0 0 0
225 1 -3.3058917632952669e+00 -1.0462429946159127e-01 -3.8092343082911295e+00 0 0 0
186 1 -3.9759872113441581e+00 -1.3742078689486561e+00 -4.2820387820526875e+00 1 0 0
420 1 -4.3575349025901167e+00 -3.2324473317013536e-01 -4.0402598735259438e+00 1 0 0
71 1 -4.5622420082436266e+00 -1.2688271414907819e+00 -3.5138078172214491e+00 1 0 0
279 1 -4.2026528012256472e+00 -3.0911434556187467e-01 -2.9788814080188009e+00 0 0 0
904 2 -2.6063095470820756e+00 -1.0116711693965947e+00 -3.7098371949973119e+00 0 0 0
36 1 -2.5504859414567429e+00 -3.6270125759547994e-01 -3.2001504305138728e+00 0 0 0
215 1 -1.9449613571479067e+00 -7.6674134267056038e-01 -4.1158854148070416e+00 0 0 1
675 1 -2.8123072418049269e+00 -9.8263992851739224e-01 -4.6098732613346067e+00 0 2 0
933 2 -2.8124266013028389e+00 -2.0936343792076659e-01 -4.4249465780413200e+00 0 0 0
790 1 -4.4007387640656406e+00 -4.6490472248308921e+00 -1.4950776411706126e+00 1 1 0
229 1 -1.1000483292066694e+00 -6.5626233510359322e-01 -3.4043329389698473e+00 0 0 1
823 2 -5.2372681086021988e-01 -1.3845533711518940e+00 -4.3189109791565032e+00 0 0 0
906 2 -2.1787656908049449e-01 -8.6231334464761478e-01 -3.3824889702131133e+00 0 1 1
553 1 -1.0602123267610211e+00 -5.1161871927820635e-01 -4.4798921290578235e+00 0 1 1
525 1 -1.7731192626725607e+00 -5.7992872087452352e-02 -1.7184623431940427e+00 0 0 0
569 1 -1.4351869781242205e-01 -6.9559502473318069e-01 -4.1823577023461933e+00 0 0 0
742 1 4.5523431998126695e-01 -1.4684646424438446e+00 -3.0469363890106540e+00 0 0 0
52 1 7.0509363330203390e-01 -4.2485731677257788e-01 -3.6723931567544992e+00 0 0 0
878 2 2.0891282177734478e+00 -6.7346761372419450e-01 -4.3437194149183984e+00 -1 0 1
112 1 2.6979373057279323e+00 -1.2221329563153154e+00 -3.7358901475964554e+00 1 0 0
306 1 1.5072356312470707e+00 -1.2355397271256197e+00 -3.6333663275411063e+00 0 0 1
590 1 2.0959990272697064e+00 -1.5292503777440714e+00 -4.4774743978998250e+00 0 0 1
159 1 1.4697709944103832e+00 -9.1358974806903887e-02 -4.5373831925375816e+00 0 0 0
654 1 2.0413586346591077e+00 -3.0991697022257519e-01 -3.6509045820288262e+00 0 1 1
562 1 3.0839370658118135e+00 -8.8000280491385741e-01 -4.5606692312121080e+00 -1 0 0
425 1 3.0274919798592896e+00 -2.8084100168256415e-01 -3.2456010416271619e+00 -1 0 0
350 1 3.7412486716904891e+00 -1.0683460158560478e+00 -3.6384639675219028e+00 -1 0 1
782 1 4.0213500639478887e+00 -2.4449167620849013e-01 -4.2358805640572657e+00 -1 1 1
531 1 4.1487773352018698e+00 -1.1670744068397370e+00 -4.5472176707491521e+00 0 1 0
148 1 -3.3333662156615413e+00 -4.4300765564383067e+00 -2.8201230345151176e+00 1 0 0
357 1 -3.5507047917215377e+00 -3.3265910323269829e+00 -2.6447204520859717e+00 0 1 0
62 1 -3.5705203730488808e+00 -4.0090612350059471e+00 -1.4876244863545349e+00 0 0 0
446 1 -4.2608833261285826e+00 -4.1454429110765290e+00 -2.3029851139275888e+00 0 1 0
273 1 -4.5277711746109652e+00 -3.1912987756355271e+00 -2.6891730710385851e+00 1 0 1
859 2 -4.0649631336144258e+00 -3.0026286530283293e+00 -1.9875649804625890e+00 0 0 1
467 1 -2.3983010991712068e+00 -3.5689073780959641e+00 -2.7231455628949250e+00 0 1 0
910 2 -3.0697700589399015e+00 -3.8381327244392778e+00 -2.2034853399199559e+00 0 -1 0
406 1 -1.4282742032403501e+00 -3.5514425828008283e+00 -3.4143234078055795e+00 -1 0 0
491 1 -6.2103268536634870e-01 -3.5819387920733408e+00 -2.3476216541817299e+00 0 1 1
508 1 -1.5609394185224252e+00 -4.0640704684017095e+00 -2.5614964485356762e+00 0 1 -1
896 2 1.7133348335076463e-02 -4.1090339115806396e+00 -2.2940014767031567e+00 0 0 0
443 1 3.3612119461968570e-01 -3.3271705873438790e+00 -2.1401553887041258e+00 0 1 1
153 1 -1.3249677136148477e-01 -3.7483606867705395e+00 -1.3081878964866087e+00 0 0 1
652 1 9.4309404673962149e-01 -4.3193490739281168e+00 -2.0833900035615156e+00 0 0 1
944 2 2.2287253307145698e+00 -2.3533758010760599e+00 -4.4731527646048290e+00 0 0 0
595 1 -2.5099523472360517e+00 -4.5258446396758396e+00 -1.2633021832698752e+00 1 1 0
29 1 2.1474509402334898e+00 -3.9591893960187678e+00 -2.6095079918516544e+00 0 0 1
75 1 1.3434357719892545e+00 -3.4266774477088293e+00 -2.2927101723761782e+00 0 0 0
717 1 2.7808075990489405e+00 -4.4113190755615008e+00 -1.7087591813137302e+00 0 1 1
700 1 1.8857985241635071e+00 -4.0342587151822142e+00 -1.5536630190190699e+00 0 1 0
91 1 3.2075085147034663e+00 -3.6075527561838916e+00 -2.3459312632685370e+00 1 0 0
972 2 2.1843725084237167e+00 -3.3342813315346387e+00 -2.0271022987173803e+00 0 0 0
670 1 -2.4724378467215193e+00 -4.5845806230225312e+00 -2.3761186544700097e+00 1 1 0
507 1 4.0579439379844109e+00 -3.9670440388817281e+00 -2.4686358644154809e+00 -1 0 0
272 1 4.6516145884943585e+00 -3.6765013700047979e+00 -1.6653674130978293e+00 0 0 0
184 1 -3.7314062323142587e+00 -1.2152402846926496e+00 -2.5043416351915773e+00 0 0 0
32 1 -3.8298872777850983e+00 -2.3505650619379521e+00 -2.5289427774468622e+00 0 -1 -1
688 1 4.4685317894717365e+00 -2.3460532298026266e+00 -3.0903102248246794e+00 0 1 1
237 1 4.5090271431337205e+00 -2.2651823309756001e+00 -2.1167544201304151e+00 0 0 0
630 1 -2.1026095729415428e+00 -2.6044908210440587e+00 -1.5844771638379078e+00 2 1 1
897 2 -2.7758878310639572e+00 -2.7748526042284971e+00 -2.3176937142031409e+00 0 0 2
196 1 -2.9825017291775247e+00 -2.5587562997272255e+00 -3.1218944935556108e+00 1 1 0
610 1 -2.8974297513824845e+00 -2.0428537668146358e+00 -1.9377532841012086e+00 1 -1 1
216 1 -2.0781154979087155e+00 -2.1892358624720831e+00 -2.4945585080864126e+00 0 0 0
326 1 -1.2467764539210597e+00 -3.2806263165836955e+00 -1.4498034711972498e+00 1 0 0
644 1 -1.0621142868976365e+00 -2.0639713300200602e+00 -2.6798439121762549e+00 0 0 1
133 1 -1.4615719544806027e+00 -2.9830868652365066e+00 -2.4430861046952521e+00 0 0 -1
438 1 -2.6464554357994763e-01 -2.4981004832035745e+00 -2.0660602873241607e+00 0 1 0
422 1 -1.1314492660936153e+00 -2.2675755361354599e+00 -1.5191564856219602e+00 1 0 0
964 2 -6.6147377866652723e-01 -1.8014316738128875e+00 -1.9486763767268973e+00 0 1 0
895 2 7.1125406982330630e-01 -3.7121235131899306e+00 -1.5266394124904206e+00 0 0 0
7 1 2.7020070470690521e-01 -2.4656118906538267e+00 -2.9220539951789162e+00 1 0 0
474 1 9.8907075781349163e-01 -2.5813651671685665e+00 -2.1254722097001433e+00 0 0 0
952 2 1.9099590857589799e+00 -2.4554901854957185e+00 -1.8876962451283001e+00 0 0 0
251 1 1.9095795940665816e+00 -2.7548383263048417e+00 -2.7329596115828556e+00 0 0 1
210 1 2.4969175825359184e+00 -1.8589695293673618e+00 -2.8154320080640676e+00 0 0 1
457 1 2.8891448190045157e+00 -2.6426204420131030e+00 -2.2781507102088661e+00 0 0 0
657 1 1.6937502808494060e+00 -1.7523668275574598e+00 -2.3702930843416046e+00 0 0 0
979 2 3.4596253911013513e+00 -2.0102630589177140e+00 -2.4749600379293333e+00 -1 1 1
709 1 3.6192847464994995e+00 -2.8443918148820480e+00 -1.5341680511726494e+00 0 1 0
584 1 4.1692961424836126e+00 -1.4705496188567391e+00 -2.6312014860545569e+00 0 0 1
183 1 3.8530590233299788e+00 -2.8637981760387929e+00 -2.5636037853454590e+00 -1 0 0
55 1 3.2086986453684885e+00 -1.6941700989521460e+00 -1.7388525956242427e+00 0 -1 0
853 2 4.0441262308752064e+00 -1.8820295528190616e+00 -1.5454989107218096e+00 -1 -1 1
686 1 -4.6274007808489666e+00 -1.2856264631329426e+00 -1.8264305034607817e+00 1 0 0
998 2 -4.3889625076626935e+00 -1.7913165870085499e+00 -2.7455214203109675e+00 1 0 1
297 1 -3.4988864707256315e+00 -1.0758403443361828e+00 -3.5432650394498300e+00 1 0 0
468 1 -3.9896537367122202e+00 -4.4415815260775765e-01 -1.9865725403238608e+00 1 1 0
519 1 -3.3422232355200823e+00 -1.1257143892703072e+00 -1.6059901830858412e+00 0 1 0
911 2 -3.3217707378322845e+00 -4.0666381291744114e-01 -2.8972177398056425e+00 0 0 -1
691 1 -1.7934199955229779e+00 -5.2196716960906364e-01 -2.6487450864300062e+00 1 0 0
119 1 -2.6557831057026982e+00 -1.2815589956328812e+00 -2.8979563463636868e+00 0 1 -1
142 1 -2.1369985748940885e+00 -9.4876241342225021e-01 -1.7273202211877992e+00 0 0 -1
613 1 -2.8594283633124911e+00 -4.8008010719619915e-01 -2.1715654363199239e+00 1 1 1
969 2 -1.8497850489681145e+00 -1.3708176960550000e+00 -2.6087624836979315e+00 0 0 1
779 1 -1.1677039855190616e+00 -1.0632203624156158e+00 -2.0534444764215207e+00 0 1 0
875 2 -6.3221540134279863e-01 -4.4597208156253965e-01 -2.7150374549250840e+00 1 0 0
311 1 3.6704842979519409e-01 -5.6090286046292726e-01 -1.7499238485939499e+00 0 0 1
349 1 3.8617283637164790e-01 -1.6833924886100973e+00 -1.8304908368132049e+00 0 0 0
139 1 -2.7346968538741540e-01 -1.1296148599653928e+00 -2.4583534838822638e+00 1 0 0
6 1 1.0735897613566008e+00 -9.3752472760319383e-01 -2.3707482598292797e+00 0 0 0
198 1 2.1587703191119234e-01 -3.8296381512550248e-01 -2.7413838941953315e+00 0 0 0
727 1 1.8172072260241618e+00 -5.5607842017683606e-01 -1.8254164480612833e+00 0 1 1
150 1 2.0879189325658278e+00 -8.9370179929089244e-01 -2.8300163447799385e+00 0 0 0
898 2 2.5717387854505280e+00 -1.2572373237437209e+00 -2.2160623354709301e+00 -1 0 0
763 1 4.4035856263868940e+00 -4.6637581900121872e-01 -2.3423108447317378e+00 0 0 1
937 2 3.8093794250522843e+00 -9.5302624307013850e-01 -1.9801436655241040e+00 0 -1 0
135 1 3.1906258227431303e+00 -1.0971800501111288e+00 -2.6926178436907704e+00 -1 0 0
855 2 4.5550479357313440e+00 -4.7384708706990347e-01 -1.5814652026240246e+00 -1 -1 0
843 2 3.4948783969188626e+00 -2.7233556807591314e-01 -6.5585582211166993e-01 0 0 1
256 1 -3.4101051864903646e+00 -3.0636419279760037e+00 -4.2960568952383281e-02 1 0 0
324 1 -4.1528573122289663e+00 -3.3622520601416510e+00 -8.9555699626852148e-01 1 0 1
59 1 -3.9160128715123395e+00 -4.2723340826882028e+00 -5.2714721309186929e-01 1 0 0
694 1 -4.2372181789282974e+00 -3.6521886168764106e+00 -4.6348169645691035e+00 -1 1 1
50 1 -2.4161399673664752e+00 -3.5629497423861785e+00 -1.6340383744452034e+00 1 1 0
745 1 -2.9119242786081450e+00 -3.6464584164310949e+00 -7.9533002233723915e-01 0 1 0
945 2 -2.5044859209414079e+00 -4.0197509800185411e+00 -2.2049256005079737e-01 0 1 0
560 1 -2.4387527090075309e+00 -3.0615986906911701e+00 -4.3165253205481022e-02 -1 1 0
408 1 -1.6683174306291455e+00 -3.9636944907918448e+00 -7.1698401985427651e-01 0 0 0
943 2 -1.8121416292840420e+00 -4.0868453766523158e+00 -1.7516232962693596e+00 0 1 0
460 1 -9.9930211285625026e-01 -4.3398648576946561e+00 -1.5727768953775636e+00 0 -1 0
16 1 -4.9490369132169099e-01 -3.9441136195942619e+00 -4.5095018262650344e-01 0 0 0
24 1 3.9075646306473484e+00 -8.8581206292008341e-01 -1.1107270696365021e+00 0 0 0
304 1 1.6750325630475382e+00 -3.0599772669295429e+00 -9.3236730375620358e-02 1 0 0
861 2 3.2219882082297591e-01 -4.0140112153661089e+00 -6.8977875130222366e-01 0 0 1
195 1 1.1167528333557140e+00 -3.6138101434656993e+00 -7.4871065989624352e-01 1 1 0
851 2 5.5181731415415181e-01 -6.9886308465109248e-01 -1.5683640237683977e-01 0 0 -1
193 1 2.1798159573527243e+00 -3.6855698326012316e+00 -6.2315981470794812e-01 -1 0 0
378 1 2.8453265897481246e+00 -3.3949127509867019e+00 -1.4380451119785758e+00 -1 1 0
816 2 2.4648063991141482e+00 -4.3770017479702430e+00 -8.9277341695324763e-01 1 0 -1
245 1 3.8339542421545052e+00 -4.2468701558214281e+00 -1.5052026272507411e+00 0 0 1
428 1 3.6618822539628040e+00 -1.6920625428676933e-01 -1.7452842945288898e+00 0 0 0
146 1 3.1550477011764144e+00 -3.8607223712358016e+00 -5.9471007056190117e-01 -1 0 0
901 2 -4.6772627701482659e+00 -4.1122957305243002e+00 -9.0621641877905190e-01 1 0 1
69 1 4.1122124742846085e+00 -3.3815226168038244e+00 -8.2203445197657010e-01 0 1 0
869 2 3.0112511863732276e+00 -2.0410509063001461e-01 -4.1576935920938434e+00 -1 0 0
838 2 4.6798448283624744e-01 -9.6932971983097943e-02 -4.4014826658258945e+00 0 1 1
448 1 -3.3479847029244785e+00 -3.0199160809295029e+00 -1.5731545588871672e+00 0 1 0
294 1 -3.8921375173206538e+00 -2.4033482893312819e+00 -6.1815624398227664e-01 0 0 1
701 1 -3.9591731104195245e+00 -2.0565567271777381e+00 -1.5584524558585304e+00 1 0 0
931 2 -1.8410654627608292e+00 -1.8116695115966790e+00 -1.7790586508071007e+00 0 0 0
894 2 -2.1944309245470404e+00 -3.1681740068923054e+00 -8.7099857443365680e-01 1 0 0
432 1 -1.7674672221375389e+00 -2.3645270552151403e+00 -6.8411326407243711e-01 1 0 0
473 1 -2.7781523665352887e+00 -2.5751977859650865e+00 -8.6289285891337242e-01 -1 1 0
130 1 2.7417712638139471e+00 -2.8018162333009750e-01 -2.2892963120181093e+00 0 0 1
638 1 -9.1998205557389767e-01 -2.9249827365292829e+00 -5.8168344431541541e-01 -1 1 2
989 2 -4.5339462628563498e-01 -2.9607269897373434e+00 -1.2736357562644607e+00 0 0 1
86 1 -2.3563120332728538e-01 -2.1243412379771094e+00 -9.5689125642357242e-01 0 0 0
201 1 -1.3066616639745798e+00 -1.3832994994812076e+00 -1.0210803183929871e+00 0 0 0
801 2 -9.3146578337119468e-01 -1.9676250239101132e+00 -4.8732976516482052e-01 2 -1 0
741 1 4.5788240914457801e-01 -2.8182264905278314e+00 -1.2398767378392195e+00 0 1 1
830 2 1.1197653767260021e+00 -2.7219691715208443e+00 -6.6863776155158627e-01 -1 0 0
786 1 1.5342447015117458e-01 -3.1107060564263245e+00 -3.9884818011006701e-01 0 0 0
706 1 6.1434110375732731e-01 -2.0952071891177888e+00 -3.6215106859742130e-01 -1 0 0
603 1 1.2202693544101650e+00 -2.0458888936985482e+00 -1.2284368371285157e+00 0 1 0
154 1 2.7446128257873941e+00 -3.0145724501619280e+00 -2.4116658495134705e-01 0 1 0
79 1 1.6395503684901309e+00 -2.9550393412904707e+00 -1.3216911417788113e+00 0 0 -1
5 1 2.0412540040738123e+00 -2.1768813777792171e+00 -4.8019609549830161e-01 0 0 0
772 1 2.6084936174346303e+00 -2.4970601531635892e+00 -1.1871643781745864e+00 -1 0 0
646 1 2.1261426582878489e+00 -1.6538398957493265e+00 -1.4234356750266617e+00 0 0 0
38 1 3.2358601096351016e+00 -4.5642504844301852e+00 -3.0000838322095240e+00 0 0 1
841 2 1.3885453412021644e+00 -2.2269591162853404e+00 -2.7102515629268041e-02 1 1 0
192 1 4.6046724304840572e+00 -2.4654686367327963e+00 -1.0545263835543972e+00 -1 0 0
47 1 3.5663320997789167e+00 -1.9190481160205339e+00 -8.2909755762441439e-01 0 -1 0
860 2 -4.0199957498889738e+00 -9.2134402129083159e-01 -5.6098574248155016e-02 0 0 0
530 1 -4.5091605077452721e+00 -1.5499367572519087e+00 -8.7204497223083410e-01 1 0 0
495 1 -3.5254895635375827e+00 -1.4635276638260957e+00 -5.4902897864240729e-01 0 1 0
563 1 -4.2562346853606039e+00 -5.6112171899544405e-01 -9.2654010006314180e-01 1 0 0
928 2 -2.5957271867226521e+00 -2.8661887627898092e-01 -1.4379593708042100e+00 0 0 1
583 1 -2.3772325951297795e+00 -1.6343997479357233e+00 -1.0508394297687365e+00 -1 1 0
98 1 1.2407744479548506e+00 -4.6797221330595464e+00 -8.7823170813406304e-01 0 0 0
571 1 -1.9612221902287963e+00 -8.0023064982282599e-01 -6.0278033723804969e-01 0 0 1
322 1 -2.9810689859889288e+00 -5.9300771051848966e-01 -8.2477692166045946e-01 2 -1 0
85 1 -9.5617839785472303e-01 -7.0617759599372543e-01 -3.0744661482666558e-01 0 -1 0
808 2 -1.3230437414902221e+00 -4.5178459056844794e-01 -1.0325229343048148e+00 0 1 0
320 1 8.9204234821947259e-01 -4.5728143802204420e+00 -3.8093845717536223e+00 0 -1 1
19 1 -3.9094117154256791e-01 -1.2364337697879946e+00 -1.3174316546869271e+00 -1 0 -1
665 1 -3.1795374927202968e-02 -5.5939231250261445e-01 -7.2257843216879969e-01 0 0 1
932 2 1.3951951857801517e+00 -1.2224348584010554e+00 -1.6698782602052915e+00 0 0 -1
477 1 6.1692746929923281e-01 -1.2118762809400547e+00 -9.6146395229164783e-01 0 1 0
545 1 9.4654660654005562e-01 -2.1310163835996637e-01 -7.2996361419322897e-01 0 0 -1
699 1 2.7315975683783460e+00 -1.4143470131471687e+00 -4.9554083984391673e-01 -1 0 0
379 1 1.7774034134676480e+00 -8.6111537170618124e-01 -8.6524635179253506e-01 1 0 0
240 1 2.9092746456771947e+00 -7.8861606591549704e-01 -1.2937235252007870e+00 0 0 1
27 1 4.1090086579140204e+00 -4.5801225266804790e+00 -5.3453204050499337e-01 -1 0 0
87 1 2.6349404616385099e+00 -3.5393832140235348e-01 -2.6136899043505729e-01 0 -1 0
158 1 -7.8770015478089972e-01 -1.9314496840041295e-01 -1.7453622077588875e+00 1 0 1
596 1 1.9257608884077799e+00 -4.6742360121532860e+00 -3.3380080726335963e+00 0 1 1
807 2 8.0770994047259836e-01 -4.5581757035541539e+00 -2.9294426898480359e+00 1 1 0
56 1 4.3004513878409849e+00 -2.0059594808256378e+00 -1.3700589994608880e-01 0 1 -1
437 1 3.5336412560155948e+00 -9.7078786281767326e-01 -4.6478515002853465e-02 0 0 0
475 1 -4.5678400208923637e+00 -2.9117887675653931e+00 -1.1161952817608269e-01 1 0 0
1000 2 -2.0635109553585176e+00 -1.4804984667558936e+00 -7.5204872507858442e-02 0 0 0
40 1 -1.1448672307677189e-01 -1.3039285964400533e+00 -9.5649643785553750e-03 0 0 0
315 1 1.5596781507433588e+00 -4.2549610057161180e+00 -2.5330404920556399e-02 0 0 0
134 1 -2.5449278968123190e+00 -4.6075310559283338e+00 -4.6806936549073273e+00 1 0 0
924 2 -4.0447237555367614e+00 -3.4418117779147686e+00 2.9706441067707717e-01 0 0 0
618 1 -3.1338569678464570e+00 -4.0681935898259090e+00 3.3000615322456456e-01 1 1 0
344 1 -3.1279306683409285e+00 -4.2200599515659833e+00 1.3313365979264677e+00 0 0 -1
233 1 -3.9921357790650145e+00 -3.5805357873476602e+00 1.1782565607753510e+00 0 0 0
716 1 -4.1407640291538135e+00 -4.4036394010037139e+00 7.0082271449958322e-01 0 1 1
4 1 -2.1390554820944545e+00 -4.0264204558212491e+00 6.1653548106003042e-01 1 0 0
690 1 2.5891126171878809e+00 -4.1345511187497435e+00 2.3102352201946205e-01 -2 1 0
556 1 -1.7762546139838031e+00 -3.2851708569376150e+00 1.1659978364721466e+00 0 0 -1
609 1 -1.4283633906088014e+00 -3.3649380237918849e+00 2.6010010409337125e-01 0 1 1
33 1 3.8185694809198956e+00 -2.1674110517730321e+00 4.5331219866345620e+00 0 0 -1
762 1 -1.0052869186246498e+00 -4.4911628239582599e+00 1.2525011357175075e+00 1 1 0
902 2 3.0583225614815729e-01 -3.4572090001517810e+00 8.2823569017366439e-01 0 1 2
724 1 -8.3474292847808562e-01 -3.4223087452277632e+00 1.4307463792344171e+00 0 1 0
218 1 -1.1543074901695021e+00 -4.3456674890761562e+00 1.6759507086520029e-01 1 0 0
907 2 -4.2428480238314903e-01 -4.3274168054497837e+00 6.7726179852376500e-01 -1 -1 1
340 1 -4.2439634941694809e-01 -3.3965010457397642e+00 4.8922466149791610e-01 0 0 0
80 1 7.1071630783819853e-02 -4.1124736914442952e+00 1.3144441853175024e+00 -1 0 -1
785 1 1.0557951994549959e+00 -3.7034981256382715e+00 1.0229544288073575e+00 0 1 0
975 2 8.7564072900265921e-01 -3.5370675227714239e+00 1.6523671570978712e-02 0 1 -1
848 2 9.0532965842983570e-01 -2.8770725556038541e+00 1.3328485843994413e+00 -1 0 0
589 1 -8.7941455529478041e-01 -3.9031427832804133e+00 4.5743278422594305e+00 -1 0 0
893 2 9.8602143015927579e-01 -4.4900025141404383e+00 5.8037048706123373e-01 -1 0 0
980 2 1.7671912964412821e+00 -3.7000834373808611e+00 5.6772889348182931e-01 -1 0 0
276 1 2.7062191672182481e+00 -3.2974100356764064e+00 7.9979634985701498e-01 0 1 0
284 1 1.9401968736548241e+00 -4.4065871943846160e+00 9.4371145905088871e-01 -1 0 1
262 1 4.5961954534440705e+00 -3.3458764173657953e+00 7.8849668282049579e-01 0 0 0
702 1 3.5662724438571938e+00 -3.7834143668349052e+00 3.7628199431049741e-01 -1 1 0
31 1 3.1540465800063000e+00 -4.3315975454586990e+00 1.0321462529115588e+00 -1 0 0
401 1 3.8283078020713464e+00 -4.1914038217010086e-01 4.1875976448433505e+00 0 0 0
171 1 4.2524284360427211e+00 -4.4882650794212378e+00 5.4267226563436888e-01 0 1 -1
921 2 3.9488602849218504e+00 -3.8668203225965012e+00 1.1500921664771884e+00 -2 0 -1
13 1 -3.8521481240333273e+00 -2.6680710727739272e+00 7.2768557428567071e-01 0 0 -1
359 1 -4.0859215979847257e+00 -1.7479612936548095e+00 1.1567506150559059e+00 0 0 0
500 1 -4.1360667536554301e+00 -1.7737066781209594e+00 2.3622952827061275e-01 0 1 0
39 1 -2.8721246699319884e+00 -3.2878489918849652e+00 9.6930836363612427e-01 1 1 0
941 2 -2.6197647997798850e+00 -2.4963917752952258e+00 6.9141912495532409e-01 1 1 0
592 1 -3.1061634518304420e+00 -2.1497695525054965e+00 1.2024621590857030e+00 0 0 -1
20 1 -1.6697629965475982e+00 -2.2211055287901873e+00 1.3510880355967920e+00 1 0 0
388 1 -2.3970504506312480e+00 -1.5108005692352133e+00 9.2695970247339954e-01 1 -1 0
883 2 -3.3131357626334439e+00 -1.5162225219413310e+00 5.9473526452564462e-01 0 1 1
347 1 -2.9758094529972219e+00 -2.0530297529771273e+00 2.0197404130152051e-02 1 -1 0
327 1 1.9942099032549410e-01 -2.5459314381395775e+00 1.1046544050713842e+00 0 0 0
464 1 -8.4454773455442933e-01 -2.5896538839603989e+00 9.0582883641444290e-01 1 1 0
290 1 -3.8788140945177829e-01 -1.5193732500806667e+00 1.0649223142642203e+00 1 -1 0
202 1 -3.4690040289968233e-01 -2.3485333885534829e+00 6.2532690824841280e-02 0 0 0
95 1 1.1418704480803223e+00 -2.1548977607449404e+00 1.0121949156379921e+00 -1 0 -1
249 1 7.8080769424421514e-01 -2.7591597158299028e+00 3.6220122375600311e-01 0 0 1
826 2 1.9786129555070662e+00 -4.6790463203634962e+00 3.4691491299721262e+00 0 1 -1
844 2 4.6443441907792460e-01 -1.8469381536717679e+00 5.4790375680621939e-01 0 1 0
181 1 1.8276396285665926e+00 -2.9715310047120775e+00 1.1074120825034000e+00 1 0 -1
643 1 2.0630159665596857e+00 -2.1166164971818389e+00 5.0766234594598669e-01 -1 0 0
34 1 3.0801147229799568e+00 -2.3903682694041555e+00 1.2361029734576789e+00 -1 0 1
60 1 3.1226364620433933e+00 -2.0914326703231900e+00 1.6675522611468166e-01 0 -1 0
602 1 2.0303739577683575e+00 -1.7900630408485796e+00 1.3788771723652755e+00 -1 0 0
607 1 4.5901454910861279e+00 -2.3984324645669144e+00 7.2025192101492552e-01 0 1 0
403 1 3.7872465577585901e+00 -2.9189768358327433e+00 9.7364647906733726e-01 0 0 0
581 1 3.5838518490521607e+00 -1.4792014050194202e+00 8.6800270550017911e-01 0 0 0
566 1 4.0174600056069245e+00 -2.0744658687527178e+00 1.5090990677285994e+00 0 0 0
649 1 -3.8378759785369581e+00 -7.0218490661978827e-01 7.3528309482403242e-01 0 0 0
955 2 4.2656658464581776e+00 -4.6895152228503276e+00 3.6838599256972842e+00 -1 0 -1
486 1 -1.8221570336432549e+00 -8.5466148307065770e-01 4.5622601787080802e-01 0 0 0
800 1 -2.8260045190047416e+00 -3.9451005480821921e-01 8.2188847269926457e-01 0 0 0
17 1 -2.8935372634889638e+00 -1.0475482519201380e+00 8.5248437033801486e-02 1 0 -1
737 1 -1.1725224537868060e+00 -1.5928355549517179e+00 2.1844243128546431e-01 0 0 0
300 1 -1.3695579634770032e+00 -1.2360473946477541e+00 1.3280299895773200e+00 1 0 0
711 1 -6.6212047617529646e-01 -4.8703353437337049e-01 1.3643844382615049e+00 0 1 1
850 2 -7.3571709716779865e-01 -8.5536292582675300e-01 5.9888004594009125e-01 1 0 -1
76 1 -1.6322268782660299e+00 -2.5502900821560742e-01 1.3008688107033943e+00 0 0 -1
360 1 1.4314210325422079e+00 -1.0620344445031649e+00 1.0037883960291882e+00 -1 0 1
203 1 3.7293880988760568e+00 -3.2651782827107287e+00 4.5982663144051763e+00 0 0 -1
64 1 2.9665481539636601e-01 -7.9427411924924984e-01 9.0049548865605844e-01 0 -1 -1
72 1 -2.4536656987244207e-01 -1.9311856365385788e-01 4.1567404009036357e-01 0 0 -1
900 2 2.2724308082877806e-01 -7.9728330584515983e-01 1.7809612792309581e+00 0 0 0
677 1 1.1552835842503155e+00 -1.3990344469236964e+00 6.9768571199297830e-02 1 0 0
494 1 3.5999601215252137e+00 -1.3664266284219222e+00 3.9920517222205287e+00 0 1 0
874 2 2.5813506035728211e+00 -1.3322865753870286e-01 5.5506579158965108e-01 0 0 1
918 2 2.0431111543562048e+00 -5.5202270031767042e-01 1.1276504564631822e+00 -1 1 -1
472 1 2.6983792447308108e+00 -2.3308050518707601e-02 1.3905022467555028e+00 -1 0 -1
778 1 2.6243561650325620e+00 -1.0062459110795268e+00 8.0468730619113626e-01 1 1 0
996 2 3.2325096790495169e+00 -7.1635699943907138e-01 1.3510496488041723e+00 1 1 1
871 2 4.6816255238883375e+00 -4.2342599832911881e-01 4.5181127986668418e-01 -1 -1 0
68 1 4.5059892077057579e+00 -1.2144020946717555e+00 7.7291387603204031e-01 -1 0 0
285 1 3.8034660537402973e+00 -4.9457970924286471e-01 7.8130706092152069e-01 0 0 0
319 1 -4.5946293139988166e+00 -4.2402726034502543e+00 1.6902935387080296e+00 1 0 -1
126 1 -4.4126539217766458e+00 -3.4571146155969910e+00 2.6090580808661770e+00 0 0 -1
708 1 -3.7009039097513394e+00 -4.0526398340998444e+00 2.2002568275117365e+00 1 0 0
449 1 -4.4593418478621061e+00 -4.5667206597543553e+00 2.8375854704194587e+00 0 1 -1
626 1 -2.7369300460641330e+00 -4.4552845865257771e+00 2.6840035286769131e+00 0 1 0
524 1 -1.6077073050915558e+00 -3.9874351972901088e+00 1.8902219795887654e+00 0 0 -1
748 1 -2.0897940205639185e+00 -3.6541880784771572e+00 2.9239341426631671e+00 -1 1 -1
732 1 -2.6449594824130735e+00 -3.5931389746790336e+00 2.0237070660435004e+00 0 0 1
990 2 -3.1020963740519854e+00 -3.4631249724891724e+00 2.7473172549072977e+00 0 1 0
693 1 -1.3026824397392611e+00 -4.2535407187349641e+00 2.9219992862103217e+00 0 1 -1
655 1 -6.3896544381980980e-01 -4.0645123331416197e+00 2.1310878734597392e+00 1 1 0
656 1 1.5982539842298513e+00 -4.0739152208859264e-01 1.9936218130084823e-01 -1 0 1
870 2 -1.2481365893783714e+00 -3.5426529788040066e+00 2.4901104143555970e+00 -1 -1 0
922 2 9.0130222537023907e-02 -3.7848739812819368e+00 2.6647609843323488e+00 0 1 -1
493 1 1.3463787591591164e-01 -3.2414055769203154e+00 2.0625634440321008e+00 0 1 0
888 2 1.8089041637849526e+00 -4.3142445902461493e+00 2.4850437801288829e+00 0 1 0
254 1 1.3497065895471283e+00 -3.2800479817815460e+00 1.9424915223666253e+00 0 0 0