LAMMPS data file via write_data, version 31 Mar 2017, timestep = 200000

1000 atoms
2 atom types

-4.7050000000000001e+00 4.7050000000000001e+00 xlo xhi
-4.7050000000000001e+00 4.7050000000000001e+00 ylo yhi
-4.7050000000000001e+00 4.7050000000000001e+00 zlo zhi

Masses

1 1
2 1

Pair Coeffs # lj/cut

1 1 1
2 0.5 0.88

Atoms # atomic

273 1 -4.1092723953109020e+00 -3.2210546728370351e+00 -4.2165672906332103e+00 1 1 2
113 1 -3.4764763682252475e+00 -3.9457138659571940e+00 -3.4744711126113672e+00 0 -1 0
586 1 -4.1369891367907368e+00 -4.3255975735668502e+00 -4.1871276927665386e+00 0 0 -1
626 1 -3.3278529117898277e+00 -3.7150968022249549e+00 -4.5162306964099050e+00 1 1 1
314 1 -2.4509906131600090e+00 -4.4326039439065648e+00 -4.2702174170091496e+00 1 0 -1
206 1 -2.3881263971360678e+00 -3.7039646486114761e+00 -3.2442045357977620e+00 -1 0 0
471 1 -2.2647124939432657e+00 -3.3822903092205761e+00 -4.3301959554228482e+00 0 0 0
736 1 -1.7320241941629588e+00 -4.4388084374034200e+00 -3.4192313388683058e+00 -1 0 1
979 2 -2.0970899944604628e+00 -4.3979562531475009e+00 -8.5949600878283725e-02 0 2 1
832 2 -9.5149669126617864e-01 -4.6051653342455232e+00 -1.3314398403122689e+00 0 -2 0
397 1 -1.3055292294330862e+00 -3.4891011496179543e+00 -3.7229400758865636e+00 -1 0 0
641 1 -3.5914409084744536e-01 -3.5778347107286108e+00 -4.1029441683239707e+00 1 1 -1
688 1 -7.7570700438767837e-01 -4.5282750947712476e+00 -4.0702681634151636e+00 0 1 2
493 1 -7.5523683911718253e-01 -4.3353390898510877e+00 -3.0645009679023372e+00 0 2 1
326 1 3.7472750385315678e-01 -4.2582697916016912e+00 -4.3008910940466203e+00 1 1 0
878 2 9.0706182946588432e-01 -3.5080851325904874e+00 -3.9890235424121570e+00 -1 1 1
632 1 2.7380484952307749e-01 -4.0921623825513604e+00 -3.3248690886728247e+00 -1 0 2
26 1 1.2752445415737421e+00 -3.9569187783349404e+00 -3.2892924522509128e+00 0 0 0
2 1 3.8974908291580213e+00 -2.5358339164597679e+00 -4.5749729339516625e+00 -1 1 0
307 1 1.4833408266889987e+00 -4.2191691818594244e+00 -4.2986735382069057e+00 1 1 0
670 1 2.5516181130292543e+00 -4.0710749425508155e+00 -3.8601289509275700e+00 2 2 0
340 1 1.7687470461576240e+00 -3.1632586517402395e+00 -3.7497375226259750e+00 -1 1 0
894 2 -1.6241404824314418e+00 -4.6524446860992867e+00 -4.2593850452748754e+00 1 1 -1
330 1 4.6530834287706115e+00 -3.9209761463894903e+00 -3.5190077918474820e+00 -2 -2 1
17 1 3.6049836598138976e+00 -3.7335278408406931e+00 -3.4433642524965538e+00 1 0 -1
933 2 3.6372864806163210e+00 -3.2263584597051684e+00 -4.2082708035121907e+00 -1 1 -1
561 1 1.7596816740639520e+00 -2.6881642100521248e-03 -2.2321031618109521e+00 -1 0 -1
45 1 -3.0831650690484720e+00 -4.6752159508808440e+00 -1.5400633724708614e+00 0 1 1
47 1 -4.5010923575897959e+00 -2.2072517723004710e+00 -4.2906758610152709e+00 1 -2 1
668 1 -3.8132731644506395e+00 -1.7800855228565626e+00 -3.5423625415060438e+00 1 0 0
954 2 -3.6382647024485069e+00 -2.5561872439404296e+00 -4.4030451008212577e+00 1 0 0
208 1 -3.9608677608269391e+00 -2.9264413203053747e+00 -3.2865478448592151e+00 1 0 0
398 1 -3.1300307508518093e+00 -3.0169920489461619e+00 -3.8082734943005518e+00 2 1 1
49 1 -2.9494520540612261e+00 -2.1496896941378689e+00 -4.0781708932450575e+00 0 -2 0
500 1 -2.1035780918059563e+00 -2.7332966925669191e+00 -3.6237999706328643e+00 0 1 -1
577 1 -7.2116352735572431e-01 -1.0816376840699831e+00 -3.6097097189069970e-02 0 0 -1
918 2 -6.7544269239333787e-01 -2.9037297553219794e+00 -3.7437718989264850e+00 -1 1 -1
773 1 -1.1905060808451440e+00 -2.0849618377712056e+00 -3.7412172149537457e+00 0 0 0
720 1 1.8545411189462890e+00 -5.2207617384868441e-02 -3.9385601585342673e+00 0 1 1
893 2 2.8509239605390668e+00 -8.0135901224786743e-01 -1.1226135293285477e+00 0 -2 0
797 1 -1.3861687852676755e-01 -2.5065872898889721e+00 -4.2694155127501254e+00 0 0 1
514 1 4.4443854261720739e-01 -3.0222479090039522e+00 -3.4932851523519588e+00 1 0 1
595 1 1.0688253808090811e+00 -2.4766073329281135e+00 -4.1699802365926839e+00 2 1 1
22 1 6.4139410639761441e-01 -2.0391822495105467e+00 -3.2697856891529815e+00 0 0 -1
890 2 4.5969014706472411e-01 -1.9459535916594359e+00 -4.0830457270477885e+00 -2 -1 1
639 1 1.6932112450971590e+00 -1.9504473866005421e+00 -3.3922646786683082e+00 0 0 2
815 2 2.4560162564972678e+00 -2.5764576346448029e+00 -3.6928980268477845e+00 1 0 -1
299 1 2.1319934399347904e+00 -2.1455024294979732e+00 -4.4158432507652803e+00 -2 -1 1
322 1 2.7628316794504082e+00 -1.7246399119200397e+00 -3.5952344439390784e+00 2 0 1
822 2 3.0799156441630782e+00 -2.2191108023784718e+00 -4.3135755408978218e+00 -1 -1 -1
125 1 3.2750159988811665e+00 -2.6468097416828162e+00 -3.6143932964867065e+00 1 0 0
303 1 4.3474707854273964e+00 -2.9137601855653279e+00 -3.7092790508243327e+00 -1 1 0
520 1 3.9290013804837449e+00 -1.8673145195280898e+00 -3.8183991139434190e+00 1 -2 -1
46 1 7.1962985702160442e-01 -1.9728945403608084e-01 -2.4832783280612838e+00 -1 -1 0
803 2 -3.7465542207582083e+00 -1.3133666702216806e+00 -4.2324511218753171e+00 0 0 2
205 1 -4.1139148985114780e+00 -5.4662880343224585e-01 -3.9971233788588028e+00 1 1 0
898 2 -3.8407424792753586e+00 -9.6442195240976636e-01 -3.2965077748756166e+00 -1 0 -1
578 1 -3.0581225721251433e+00 -9.6173322931104643e-01 -3.7931529771036026e+00 2 0 -1
792 1 -3.4274135514360387e+00 -2.1717235129986912e-01 -3.1244469888683164e+00 1 0 0
170 1 -4.6682500865541909e+00 -1.2350152609498783e+00 -3.5272547023954473e+00 1 -1 -1
535 1 -2.2223692245358029e+00 -1.5315874671794438e+00 -3.6651961273957245e+00 0 0 0
625 1 -2.2076026671428197e+00 -2.7032609409674008e-01 -4.0182212367463919e+00 0 -2 2
932 2 -1.6221213312350506e+00 -1.4296637871328617e+00 -4.4252249451396937e+00 0 0 -1
173 1 -1.3762698941313494e+00 -4.6575100905323490e+00 -5.2617225281357627e-01 1 0 0
787 1 -2.0073255644485188e+00 -2.2339116492032116e+00 -4.6231782457761721e+00 0 1 1
737 1 -2.6994343351180056e-01 -1.5358044129070529e+00 -3.9601065884284461e+00 -1 0 0
608 1 -1.3962700002127830e+00 -9.3678283746300184e-01 -3.7665615203535507e+00 1 0 -1
417 1 -4.4948650230391024e-01 -3.9192842591998706e-01 -3.7793312013460763e+00 -1 -1 0
907 2 7.8218032050103234e-02 -8.0332803281151688e-01 -4.3605641778641884e+00 -1 -1 2
331 1 8.2782713791075246e-01 -1.0309873547890964e+00 -4.0714912404630699e+00 0 -1 2
741 1 -1.0895784725026041e+00 -2.8606590393096658e+00 -4.5390112264236118e+00 1 2 0
782 1 2.9169088407189689e+00 -1.3862386763291281e+00 -4.6282434798106511e+00 0 2 1
507 1 1.9183670357001548e+00 -1.1146929327147377e+00 -4.0507590047522548e+00 -2 -1 1
349 1 2.7803876785379957e+00 -5.0168954077865047e-01 -3.9476662437348202e+00 0 0 0
107 1 3.8698470310806230e+00 -8.6663800556601245e-01 -4.0693236582278418e+00 0 -1 -1
948 2 4.0851233832985692e+00 -7.6544059124065345e-01 -3.2532593251507502e+00 0 1 0
796 1 -4.1756087139849356e+00 -3.6890374892952220e+00 -2.6162126717203469e+00 1 1 0
91 1 -3.2580540907872764e+00 -3.3098260164059221e+00 -2.5514210750610236e+00 2 1 1
661 1 -3.5658031641165664e+00 -3.7384506949979679e+00 -1.6213241806867251e+00 2 1 2
436 1 -4.6278930244780305e+00 -3.8081248499680611e+00 -1.6676299674351509e+00 0 1 -1
606 1 3.4537857451643177e+00 -4.1742742433396280e+00 -4.4936948470693157e+00 0 0 1
541 1 -3.3908372383182837e+00 -4.4267795447851874e+00 -2.4851649890344238e+00 -1 0 -1
72 1 4.6161813388248714e+00 -1.7498093679902149e+00 -7.0040564869122657e-01 -2 0 -1
549 1 -2.4926695777564585e+00 -4.0532077976590051e+00 -2.1120418312152944e+00 0 0 -2
715 1 -1.4823571154945054e+00 -3.7113235508775739e+00 -2.5576642936454590e+00 0 1 1
713 1 -1.6240160414502132e+00 -4.1299079022365790e+00 -1.5225449567867204e+00 0 -1 0
539 1 9.9562456143131650e-01 -4.6572072073587556e+00 -1.7725303674474819e+00 1 0 2
74 1 -6.8166615951460052e-01 -4.0037175830040326e+00 -2.0247532610322359e+00 0 1 0
305 1 -4.0771483490620430e-01 -3.3559652840366945e+00 -2.9966590118213197e+00 0 0 -1
754 1 2.7268085914464910e+00 -3.0033450823662395e+00 -4.5371286362845193e+00 0 2 0
645 1 3.4150510189980215e-01 -4.0196110085114940e+00 -2.1821521260407484e+00 1 0 0
992 2 7.0209944347828346e-01 -3.5328081890315528e+00 -2.8314852319964681e+00 -1 0 -2
512 1 1.2910118021113794e+00 -3.6297417430382377e+00 -2.2002939622252842e+00 -1 -1 1
958 2 8.6229283880632046e-01 -3.0184866230182887e+00 -1.7022761622943821e+00 -1 0 -1
419 1 -7.6625286589046271e-01 -6.6702303991035716e-02 -1.8266102926598455e+00 0 0 0
277 1 2.6873426002285283e+00 -3.3221878324242984e+00 -3.0786209425728832e+00 1 0 0
516 1 2.0637897265366361e+00 -4.1996237889798040e+00 -2.5974620233799692e+00 -2 0 1
856 2 1.8876558524542533e+00 -3.4540261680353268e+00 -2.8192633561168168e+00 -3 1 -2
239 1 2.3632993575652441e+00 -3.2791700871170448e+00 -2.0211250002447509e+00 0 0 -1
712 1 1.9099940174675214e+00 -4.1032382745494171e+00 -1.5784934459434656e+00 0 1 1
596 1 2.9700182889913078e+00 -4.5218082676513722e+00 -3.0365661247478224e+00 0 0 0
657 1 3.2449494907079175e+00 -3.7908667323978444e+00 -2.2587559286226955e+00 2 0 0
19 1 4.1833024707735706e+00 -3.9666941154196476e+00 -2.5294414021412437e+00 -2 1 0
961 2 3.9539439972247954e+00 -3.3437367424760653e+00 -1.9190998731871916e+00 0 0 0
901 2 4.6254464010091585e+00 -3.2488814744888517e+00 -2.9460991504670351e+00 0 0 2
906 2 -4.0273776301371003e+00 -3.0146626077472969e+00 -1.6384249991722382e+00 0 3 0
455 1 -3.7912474998884620e+00 -2.4221494897783122e+00 -2.3624348454801800e+00 1 0 0
734 1 -4.5326631351408269e+00 -1.9494948303445010e+00 -1.8096291553740471e+00 0 -1 -1
248 1 -3.4268724513057878e+00 -1.6587380805803915e+00 -1.8130365435304414e+00 0 0 0
786 1 -4.6694693163046539e+00 -2.9232783693049882e+00 -2.2056561533921530e+00 0 -2 0
255 1 -4.6952252531528558e+00 -2.2620226560026215e+00 -3.0026052762666540e+00 1 2 0
361 1 -3.0868884404424506e+00 -2.7044387037652564e+00 -1.6365783670266953e+00 0 0 1
337 1 -2.8713889274134492e+00 -2.3752219573619420e+00 -3.0106347328266256e+00 0 1 1
895 2 -2.0259050502362013e+00 -2.1812378667509313e+00 -3.0310217376907578e+00 1 0 1
768 1 -2.1868619027209975e+00 -2.9575732718928465e+00 -2.4385110109567210e+00 0 1 0
401 1 -2.3885024252406342e+00 -1.9846948688852646e+00 -1.9902083592516275e+00 1 0 1
62 1 -3.5734552264719244e-01 -2.3285966922271113e+00 -3.1683118800250254e+00 0 0 0
635 1 -1.3421662739560014e+00 -2.7480374777352465e+00 -2.9326754691196228e+00 0 1 1
155 1 -1.0611201404277959e+00 -3.0123582885345845e+00 -1.8350236679831105e+00 -1 -2 0
838 2 -1.6601624818674154e+00 -2.3969811178269516e+00 -1.9908453398767474e+00 1 0 1
982 2 -4.7899003842719112e-01 -2.4755195889176536e+00 -2.3404095693736311e+00 -1 -2 1
35 1 -1.0561205031569885e+00 -1.9343620316188861e+00 -2.4027981912539320e+00 1 -1 1
179 1 4.3802074505061878e-02 -1.7685542119790392e+00 -2.3979305641367983e+00 0 0 0
453 1 1.3120721443541392e+00 -2.7702465353638606e+00 -2.9341922556450690e+00 -1 1 0
98 1 4.0019738805101923e-01 -2.8683513195425601e+00 -2.4090618617917721e+00 -1 0 0
631 1 1.2042436190741674e+00 -1.6509702051541473e+00 -2.3696619139996051e+00 0 1 0
478 1 1.5714827954645449e+00 -2.5527954881291657e+00 -1.9599175410560334e+00 -1 2 0
553 1 2.3243465230927138e+00 -2.4594504998026689e+00 -2.7551315810945369e+00 0 1 1
369 1 2.8131081307705634e+00 -2.1814511078777921e+00 -1.9033039251720585e+00 1 1 0
865 2 1.9008815981759541e+00 -1.5474777851941555e+00 -1.9224254691400600e+00 -1 -1 1
991 2 3.0267326524468672e+00 -2.8645667013998470e+00 -2.4065036293670428e+00 2 0 0
972 2 4.1642277903314220e+00 -2.2384021248207642e+00 -2.3801081144158873e+00 0 0 -1
212 1 3.3769162601628611e+00 -2.0942392446980373e+00 -2.7584141190149687e+00 0 2 2
323 1 3.8755050146417309e+00 -2.9714064257342114e+00 -2.7325552472410743e+00 1 0 -1
168 1 3.8170379750883154e+00 -2.0927817921102321e+00 -1.6180836962497651e+00 0 1 1
573 1 -4.1368707023092490e+00 -1.3760815239177908e+00 -2.6231936378706053e+00 0 2 1
295 1 -4.5014014354294645e+00 -3.6153510708877695e-01 -2.9789937460153055e+00 -1 0 2
11 1 -3.5912776000885112e+00 -6.1001254207156275e-01 -2.0990437667898707e+00 2 0 0
846 2 -4.5961745923669062e+00 -8.7886876880905707e-01 -2.1436320399105022e+00 -1 -1 1
733 1 -4.4334612043624624e+00 -1.8694205017553578e-01 -1.6512685519850530e+00 1 0 0
597 1 -3.1035093501429802e+00 -1.3267376547089795e+00 -2.8390492386999737e+00 -1 1 0
441 1 -2.3278448001277541e+00 -5.6526758481627037e-01 -3.0926206766049860e+00 1 1 0
405 1 -1.8232988370433689e+00 -1.3349854124027969e+00 -2.7610145931007226e+00 0 1 0
213 1 -2.5063927916111091e+00 -8.6295383317933483e-01 -2.1004803577653335e+00 1 0 0
78 1 3.1446320921032944e+00 -1.7266572147748280e-01 -5.4592257365817931e-01 -1 -1 -1
568 1 -1.6133706676315538e+00 -2.8405383393393302e-01 -2.3393784485807223e+00 0 -1 1
550 1 -1.5789047921349242e+00 -1.3880530240989604e+00 -1.7186045644144681e+00 1 1 0
92 1 -5.7985465662903479e-01 -1.1793303106773507e+00 -1.8608239745134534e+00 1 0 0
176 1 -6.4093537246533738e-01 -1.2633916046105220e+00 -3.0397617241623323e+00 1 0 0
58 1 1.4082847987624965e+00 -8.4865772249063010e-01 -3.1902747250218062e+00 -1 1 -1
580 1 -4.0932174825430430e+00 -4.6178559094441001e+00 -9.0895820390672821e-01 0 1 1
156 1 3.4601460714181492e-01 -9.8487553641402525e-01 -3.1696178961661934e+00 0 -1 1
845 2 1.5926151381684361e-01 -8.0858152035483111e-01 -2.3527331318221205e+00 0 0 1
188 1 1.3153088895708245e+00 -7.5806552385647674e-01 -1.7654093000557298e+00 -1 0 0
966 2 6.6041080779871908e-01 -1.3392588301348629e+00 -1.6396050177470434e+00 0 2 1
216 1 2.2934885233797728e+00 -3.3865407649190665e-01 -3.0180370782399275e+00 0 0 0
752 1 2.4484618314601474e+00 -7.2171478184538362e-01 -1.8776373361707632e+00 1 0 0
217 1 2.2659471366969162e+00 -1.3254695954049458e+00 -2.7243686200479900e+00 -2 0 2
746 1 3.2680070667425891e+00 -1.0137604085019962e+00 -3.0605154444915357e+00 -1 0 1
365 1 4.2747078452981295e+00 -1.0139008397247933e+00 -1.4326980703282675e+00 0 1 1
975 2 3.1125919820909593e+00 -4.9113053253936828e-01 -2.4646112142253429e+00 -1 0 0
642 1 3.2970024114285219e+00 -1.1883727876423729e+00 -2.0355138723163462e+00 0 -1 1
601 1 4.2248209425670664e+00 -1.3707932169352384e+00 -2.5462056088351313e+00 -1 1 0
518 1 3.9320271786988394e+00 -3.5815902153509344e-01 -2.2487163750961821e+00 -1 0 -2
83 1 3.2075649758520819e+00 -1.7519185028754189e-01 -1.5380648768297851e+00 0 -1 -2
781 1 -2.4179050878365760e+00 -1.6156622772899625e+00 -2.2729963468010522e-02 0 0 0
663 1 1.8513862771372223e+00 -6.3331296999831022e-01 -8.0435917591611172e-01 0 0 0
566 1 -3.9301515075128690e+00 -3.4764910701469969e+00 -7.3351246826239624e-01 1 0 1
274 1 -2.0832938992935044e+00 -3.0459925080599377e+00 -1.4371501111621550e+00 0 1 0
682 1 -3.1615860809042862e+00 -4.2717851775813376e+00 -5.7428099286724998e-01 1 -1 0
990 2 -2.6539018824585163e+00 -3.7620387919889242e+00 -1.3080157430351911e+00 -2 1 1
88 1 -2.0326464339881256e+00 -3.7866938458633888e+00 -6.8234375996178243e-01 0 0 -1
110 1 -2.9113886767255126e+00 -3.1928966123278801e+00 -6.7020807394286530e-01 1 0 0
651 1 2.4273750586047744e+00 -1.5879756454540981e+00 -1.1087726003531586e+00 0 0 1
934 2 -5.3079719712680395e-01 -4.3219672488569501e+00 -4.1773413456804165e-01 -2 0 1
567 1 -9.7681795543859040e-01 -3.7313163401790144e+00 -8.7904021547655242e-01 -1 0 -1
85 1 7.8451456435293877e-04 -3.5718206057761264e+00 -4.7233964597198252e-01 1 0 -1
510 1 -6.1397297654845855e-02 -3.2021493538962060e+00 -1.4364810765781506e+00 -2 2 0
151 1 1.0014064121121784e+00 -3.4076080280999772e+00 -1.3982480180698600e-01 -1 -1 -1
465 1 -8.6148080989958839e-02 -4.2524189788763289e+00 -1.2062580714677231e+00 1 1 -2
751 1 5.2775996559568805e-01 -4.4766113126888083e+00 -3.8237036286320453e-01 1 -1 -1
357 1 8.9621233945649359e-01 -3.7165594352630218e+00 -1.1796837000809339e+00 0 1 0
735 1 4.3631764637795030e+00 -3.6510720399218526e+00 -4.4725594063022269e+00 0 1 1
325 1 -8.1602489031488046e-01 -8.8444680677858545e-01 -4.6451095462059282e+00 0 1 1
922 2 1.6800755235396185e+00 -3.2582999579447680e+00 -1.4617889738861352e+00 0 1 0
52 1 1.9004266458597048e+00 -3.5792407145535736e+00 -6.7660302898147495e-01 0 0 1
96 1 2.7711454751336233e+00 -3.8058283092027163e+00 -1.1576593070441958e+00 0 0 1
233 1 2.5036928849692028e+00 -4.4161066880858888e+00 -3.0262801091165703e-01 -1 1 1
256 1 3.7666891883371538e+00 -3.9530609455643093e+00 -1.3936461876513804e+00 2 0 1
583 1 3.4657728174498570e+00 -4.1032250811139299e+00 -4.0631828169474060e-01 -1 2 1
249 1 4.5361766564521133e+00 -4.0087467925341409e+00 -5.5405275014891042e-01 0 1 1
997 2 3.8878672373415850e+00 -3.3965770252786434e+00 -7.3228555401476980e-01 -2 2 2
870 2 -3.3126292659532672e+00 -2.3774794412658724e+00 -3.4624939457650450e-01 -1 1 -1
800 1 -3.8979001528577033e+00 -2.4340156363583239e+00 -9.7380357446408117e-01 0 0 1
468 1 -3.3828981498058486e+00 -1.6199694708071439e+00 -6.9673059800564008e-01 1 1 0
649 1 -4.5430751512279608e+00 -2.7688520249743465e+00 -2.8520590655478945e-01 1 0 0
183 1 1.5201692728964742e+00 -4.7030415977074433e+00 -8.1798515292077445e-01 0 0 0
866 2 3.8065268584436205e+00 -5.2178340734673800e-01 -8.8260007710900290e-01 0 -1 2
257 1 -2.5271624245569098e+00 -2.1910922993780013e+00 -9.2738453873227422e-01 1 -1 0
505 1 -1.6130290764393247e+00 -2.8956712767323389e+00 -4.0249478301089692e-01 0 2 0
905 2 8.7478261416321135e-01 -2.2147890817284541e-01 -8.1502402461414969e-01 0 2 -2
172 1 3.4545058369078512e+00 -1.3849198633273181e+00 -9.4098220455294546e-01 0 0 0
677 1 -4.8966618582595345e-01 -2.2318561961611896e+00 -1.3848649628223475e+00 1 1 0
439 1 -1.4470377186064949e+00 -2.2051474811501803e+00 -1.1604072766526510e+00 1 1 -1
820 2 -8.5284475622298561e-01 -2.8183397506090957e+00 -9.1729919551186490e-01 -1 -1 0
749 1 -7.5750583849293973e-01 -2.1145434425682579e+00 -4.1985371155542084e-01 1 -1 0
555 1 4.8917233108259184e-01 -2.2555845237032726e+00 -1.5322805152005516e+00 0 0 -1
522 1 1.1183200271258088e-01 -2.5392967300884166e+00 -5.3035869741738773e-01 0 0 1
732 1 1.2298258551089247e+00 -2.6492343801758471e+00 -8.7560773757840749e-01 1 0 1
876 2 7.4747696367079197e-01 -1.9781461215743859e+00 -6.6361656924898094e-01 1 0 -1
765 1 1.4209637494644964e+00 -1.7454619073063860e+00 -1.2701297188504987e+00 0 0 0
363 1 2.9023573552327018e+00 -3.1498725132190288e+00 -3.7330789132384712e-01 -1 -1 0
529 1 1.8169244254387116e+00 -1.6681186246579658e+00 -2.6641707187760005e-01 0 2 -1
487 1 2.9084697730345868e+00 -2.0959376259589875e+00 -2.3832490599768694e-01 -2 0 -1
50 1 2.2971500106956899e+00 -2.7076996059899949e+00 -1.0666463986598724e+00 0 2 0
909 2 3.0575733003025336e+00 -2.2409152659091252e+00 -1.0632464170592286e+00 0 4 0
624 1 3.3177549403767870e+00 -2.9783762523975663e+00 -1.2971058235138491e+00 0 0 -1
986 2 3.7779074129208667e+00 -1.7638755325644564e+00 -2.3299414943643945e-01 1 1 0
674 1 3.8004399933580153e+00 -2.5521929486295560e+00 -5.2966653338925651e-01 0 0 0
742 1 4.5328787578982377e+00 -2.9092552244984775e+00 -1.2153448132035976e+00 -1 1 0
766 1 4.6812390710083580e+00 -6.4074454373940959e-01 -5.7371381579223968e-01 0 0 1
988 2 -4.1298688647717752e+00 -1.2344768675879825e+00 -3.3351328299290295e-01 0 2 2
726 1 -4.1076032596178278e+00 -1.1239032910948432e+00 -1.2540054380557046e+00 0 0 1
359 1 -3.4658431103331435e+00 -5.5290402047353604e-01 -6.4241629002086797e-01 0 -1 1
993 2 -3.1903267886907276e+00 -8.6082751448562667e-01 -1.3638702569251322e+00 -1 0 0
304 1 -2.7305436336948752e+00 -1.0252093394991639e-01 -1.2614455877454946e+00 2 0 0
28 1 -2.4814389654668521e+00 -1.2314373604033733e+00 -1.1711448647677567e+00 1 -1 0
178 1 -2.3398037602252524e+00 -5.8444861786560898e-01 -3.3794556846447049e-01 0 0 0
163 1 -1.7590127850828330e+00 -4.3239982870883115e-01 -1.3497042590521555e+00 -2 0 0
675 1 -1.2795566868908328e+00 -2.0654571952437725e-01 -2.6563672589986348e-01 1 3 -1
945 2 -9.0676184922063630e-01 -1.5268799388211587e+00 -1.0660211152636616e+00 1 -1 -2
531 1 -1.5927854653305360e+00 -1.3328931665804353e+00 -5.3831502373046791e-01 0 2 -1
611 1 -7.9280291285366911e-01 -7.1692785355698452e-01 -9.6694847115212157e-01 1 0 1
352 1 3.8155469614769926e+00 -8.3943710914357816e-01 -5.4423299626093435e-02 0 0 0
920 2 -1.3133480062228498e+00 -2.1196171167129826e-01 -4.1853942108648061e+00 -1 -1 0
250 1 3.5945197413600846e-02 -1.3683927991824867e+00 -9.8904884864246456e-01 0 0 2
739 1 2.2376626829606486e-01 -5.1235033283927811e-01 -1.5151751579297912e+00 0 1 0
571 1 1.0105322849772780e+00 -1.1150082884857575e+00 -5.4101820914855892e-01 0 0 1
259 1 1.4775361543565113e-01 -5.1105706057249933e-01 -3.4531601760646413e-01 0 0 1
57 1 2.7884926160180568e+00 -1.0827663905416087e+00 -2.8634815328785967e-01 -1 0 0
827 2 -2.8344204454292550e+00 -4.4742018524960852e+00 -3.2834380764681792e+00 -1 0 -1
389 1 -4.5621777623336870e+00 -4.6821835067519917e+00 -2.3057387398515239e+00 0 -1 1
122 1 2.1917959291267877e-01 -1.6062355701957991e+00 -3.5042823758587088e-03 1 -1 -1
33 1 -2.8284702596447059e-01 -1.9207774951654252e-01 -2.7516210376798518e+00 0 0 1
806 2 2.4189794872014487e+00 -4.6814119278205615e+00 -1.1453486301751283e+00 1 -1 -1
81 1 2.7896473268088320e+00 -4.6224698292156772e+00 -1.9165315240631042e+00 0 1 -1
207 1 -4.5355798121096207e+00 -1.1645871018942904e+00 -4.6901453098593295e+00 0 0 0
407 1 -1.4183989491477642e+00 -3.9485993965253483e+00 -4.7002818799662887e+00 -1 1 0
4 1 -3.6618008055622289e+00 -3.8454831474501097e+00 1.1007241594672414e+00 1 2 0
743 1 -4.6128994208826137e+00 -3.5843327597568866e+00 4.6040912571384118e-01 0 2 0
864 2 -4.5264913548098304e+00 -4.3002307391354577e+00 1.2926707916779037e+00 -1 0 -2
666 1 -3.4966666923434797e+00 -3.0362037507877897e+00 1.1957998084122481e-01 1 -1 1
99 1 -9.1541212891272827e-01 -1.8546296996992444e+00 4.6872431148327349e+00 0 -1 0
13 1 -7.0381474215583217e-01 -2.9623192862980896e+00 8.1935364426533333e-02 1 0 -1
21 1 -2.3211425913705246e+00 -3.6023594994566377e+00 3.5674163740305675e-01 0 0 -1
198 1 -2.8994237820111652e+00 -4.4776386788467697e+00 5.7832233462582383e-01 0 0 0
692 1 -2.6637187722480795e+00 -3.8518072815872366e+00 1.4788453748220212e+00 -1 1 1
463 1 -1.6045962639124933e+00 -3.8478720966092306e+00 1.2250326018642175e+00 -1 1 1
406 1 -3.4401796985984832e+00 -4.6674961140636393e+00 4.4388395949822650e+00 -2 -1 0
89 1 3.9046776784058075e+00 -1.4603514774307147e+00 4.4990379522109460e+00 0 1 1
744 1 -6.3143345627662861e-01 -3.3810621488518331e+00 1.2182151551015301e+00 -1 1 1
929 2 -9.1307564567037680e-01 -4.4072021285259284e+00 9.1776413696378711e-01 1 -1 -2
590 1 -9.7017645562018029e-02 -4.3941622297845608e+00 1.3261767533585294e+00 0 0 0
523 1 -2.8440896612816774e-01 -4.0292625928357717e+00 4.1226031579139333e-01 0 1 2
279 1 1.9687284308644957e+00 -2.7292477529177610e+00 6.5048380775100251e-02 0 0 1
926 2 6.6910939442998585e-01 -4.0046086891819552e+00 5.4474060962717330e-01 -2 1 1
111 1 1.0108647747549060e+00 -4.3520434006364157e+00 1.2838901208052969e+00 -1 1 0
659 1 1.3347398432370434e+00 -3.2429272968904757e+00 8.2010750460340742e-01 0 1 0
528 1 3.7292059699325170e-01 -3.4708327744409599e+00 1.5066597221576417e+00 -1 1 1
159 1 1.4636630063582128e+00 -4.4265581946207151e+00 2.0231992371824914e-01 1 0 0
187 1 2.3262509582509647e+00 -3.6532208668665973e+00 3.9392559298442809e-01 -1 0 -1
819 2 2.3475643173519254e+00 -4.6131775375267159e+00 6.3904544451592449e-01 1 0 0
281 1 3.0941344640608364e+00 -3.5357714565576392e+00 1.2554271736806855e+00 -1 0 1
221 1 3.1577658834345459e+00 -4.5017210221884829e+00 6.4247623358413697e-01 -1 1 -1
415 1 2.0790342685403433e+00 -3.9398652121835576e+00 1.3660235519199575e+00 0 1 1
144 1 3.8675676442971572e+00 -3.3351910135855327e+00 1.7694222749337507e-01 0 0 0
824 2 3.1497976660374172e+00 -3.7527690343155875e+00 3.0136341560620333e-01 0 -1 0
446 1 4.1030183779820151e+00 -3.9633003885007825e+00 1.0870216994826605e+00 -1 0 0
862 2 4.0819964838684211e+00 -4.1461246911111420e+00 2.0627761178474349e-01 0 1 1
707 1 4.3923753102561394e+00 -2.7330061380879966e-01 4.5240264789620053e+00 -1 0 -1
628 1 -4.1922825144895581e+00 -2.5641576466572258e+00 9.5222985065681054e-01 2 -1 -2
51 1 -3.2394338559470643e+00 -2.0884091521518653e+00 7.6745220388305657e-01 -1 1 0
778 1 -3.4313405201211680e+00 -2.9507393424304467e+00 1.6454541376206315e+00 2 1 0
292 1 -2.4190285794782214e+00 -2.8333404082376754e+00 1.1633974674820013e+00 2 1 1
508 1 -1.7924150312903460e+00 -1.7848941481608200e+00 1.3147935011871381e+00 -2 1 -1
834 2 -2.3490535192088626e+00 -2.0600414533896498e+00 7.4970869403530138e-01 1 0 0
425 1 -1.5111078084659393e+00 -2.9116205424977846e+00 6.8720984041595856e-01 0 0 -1
780 1 -1.4333350737080970e+00 -1.9827198823897627e+00 2.8465911184015041e-01 -2 1 0
6 1 -2.6620533911567973e-01 -2.2918910415297042e+00 6.5427075733143536e-01 1 0 -1
973 2 -1.2831208807742550e-01 -2.7151488181592223e+00 1.3376219783813650e+00 -1 2 1
457 1 -9.8480420862675599e-01 -2.3925878175046162e+00 1.4672080027695309e+00 -1 0 0
622 1 -1.7425880129509205e-01 -1.8488309548599702e+00 1.6819152664964039e+00 2 0 0
767 1 3.2757071110828229e-01 -3.1361858806467575e+00 5.1262120345051698e-01 0 -1 1
923 2 2.9485599521725692e-01 -1.5469157506317994e+00 8.8542072993508025e-01 0 1 1
329 1 6.5492543257814817e-01 -2.4109249277939719e+00 1.2733002301364984e+00 1 1 0
708 1 4.8116976195385058e-01 -3.2644633072425111e+00 4.6321881434837193e+00 0 1 0
400 1 -2.4819482683741390e+00 -2.5950835856444776e+00 1.4726263742674139e-01 0 1 0
294 1 1.6005528128799278e+00 -2.1027931054620663e+00 9.2532983958597192e-01 -1 0 0
25 1 2.2136452870632009e+00 -2.8614704228835985e+00 1.1030747514429609e+00 -1 0 -2
835 2 2.4480729428803372e+00 -2.2373003656490882e+00 5.3118005296463089e-01 -1 -1 -2
638 1 2.5725562727081819e+00 -1.9137839260807479e+00 1.3517687028809722e+00 1 1 2
783 1 3.1495137929390484e+00 -2.7230413870872976e+00 5.1244417257677510e-01 -1 1 1
816 2 3.6203879431445496e+00 -2.2387255256090284e+00 1.1371838211114269e+00 2 -1 -1
761 1 4.1593004234324704e+00 -2.9517201155015900e+00 1.1281458012137833e+00 -1 1 -2
772 1 4.2153864414846502e+00 -2.2025675785337251e+00 3.2179783052192928e-01 -1 1 0
603 1 4.5557873127405495e+00 -1.9320346049280082e+00 1.3919928074876970e+00 0 2 -1
276 1 3.3094235126032894e+00 -1.7050794612866293e+00 5.8633344127810627e-01 1 2 0
149 1 -3.9951569312282329e+00 -1.4271551001111373e+00 1.1189219886389421e+00 0 1 -1
272 1 4.6610053718196331e+00 -1.3191834150886967e+00 2.5743121852890172e-01 0 0 2
197 1 -3.4516969885367499e+00 -4.9235794247020159e-01 1.1423355778302260e+00 -1 -2 0
9 1 -4.5255993237791996e+00 -4.7425268691376676e-01 1.0970845463054895e+00 0 1 -1
915 2 -4.4398075587896946e+00 -4.6232334974802738e+00 4.5299584568138656e+00 1 1 -3
841 2 -3.8273196053539036e+00 -4.3951212191726770e+00 2.8133107722518154e+00 -1 1 1
664 1 -4.0483941587844710e+00 -3.8598801101638019e-01 2.0556682166581436e-01 -1 1 1
652 1 -1.7322256690915656e+00 -9.4582019630779246e-01 5.5355889461892005e-01 2 0 0
69 1 -2.6835502206117643e+00 -1.1816991486267030e+00 1.0475714283321518e+00 1 0 0
912 2 -1.0755110115166338e+00 -3.7112283007279416e-02 2.1084736555319381e+00 0 -1 1
79 1 1.5916019845878777e+00 -3.2572182298267687e+00 4.6555965442889988e+00 0 1 -2
655 1 -3.8990286083978414e+00 -4.6966415705929982e+00 1.9539763024989978e+00 1 1 1
18 1 -8.3684062821523475e-01 -1.3385221434453856e+00 9.3608541616018737e-01 1 0 -1
771 1 -9.1156503475728967e-01 -2.8310377216197391e-01 7.7301504225333406e-01 1 1 0
533 1 3.9361640131117245e-02 -8.1170330715668604e-01 6.7519907097496756e-01 0 0 -1
136 1 1.1348407543460335e+00 -1.2937414690960438e+00 4.8673857354171018e-01 -1 -1 -2
186 1 8.9095447337162437e-01 -2.9070143445710239e-01 1.0998356963962914e+00 0 0 -1
879 2 1.9563358809703724e+00 -8.0382241267801213e-01 2.2303309296089924e-02 -1 -2 -2
143 1 1.8605289981839717e+00 -4.2324399127934076e-01 8.2767426294763369e-01 0 -1 -1
837 2 1.6012729163888502e+00 -1.2799702981503926e+00 1.2274654351846317e+00 -1 0 -2
16 1 2.2910009277956256e+00 -1.3647405896459732e+00 5.8913152163753901e-01 0 0 0
482 1 2.9630068727412175e+00 -5.1792953879922343e-01 6.1014071462949393e-01 -1 1 -1
716 1 2.7398118055780811e+00 -8.5760889101058513e-01 1.5398666607596878e+00 -1 0 1
885 2 4.5021202449255142e+00 -4.3331816715065707e-01 2.9771447082000108e-01 0 -1 0
310 1 3.9022935735236497e+00 -9.6157574456828887e-01 9.5402987838184306e-01 -1 2 0
469 1 -4.5248912084668760e+00 -3.4375556768570070e+00 1.5933496035898840e+00 3 0 -1
392 1 -3.8826156252541826e+00 -3.6371301519007844e+00 2.2863616484777611e+00 1 0 0
263 1 3.9515142960578404e+00 -7.4600419998128076e-01 3.6891867571372883e+00 1 0 0
964 2 -3.2628919279374964e+00 -3.6418691898106901e+00 2.8452619380415758e+00 -1 1 0
395 1 -3.0385068628420902e+00 -4.3523033704367426e+00 2.3474199353503415e+00 0 1 -2
117 1 -1.8173939986832675e+00 -3.9395675615734866e+00 2.2844922557138525e+00 1 0 -1
7 1 -2.3291344768097866e+00 -4.2109323617707881e+00 3.1266821048240252e+00 1 1 0
29 1 -1.0392039373437671e+00 -4.5205877398066825e+00 2.4950043553846570e+00 0 1 1
831 2 -1.1760531803435439e+00 -3.7541704918497052e+00 2.8339486140502452e+00 1 1 0
284 1 -2.7064068602407160e-01 -3.8550777026469465e+00 2.3383323976761976e+00 -1 1 2
924 2 -1.0170746294264210e+00 -3.9295199733978636e+00 1.8101868284137437e+00 -2 0 1
385 1 -1.1296645187378982e+00 -3.1576200566586405e+00 2.2389088512494877e+00 1 1 -2
280 1 6.5219872961163761e-01 -3.4574051274477955e+00 2.5223090123575509e+00 0 1 0
562 1 5.4466714245189773e-01 -4.5056820206779298e+00 2.2116103387158206e+00 0 0 0
836 2 1.2985329335614153e+00 -3.7775889752053446e+00 1.9365401852024871e+00 -1 1 0
621 1 1.2795805195725185e+00 -4.2259041133562478e+00 3.0147276056871037e+00 2 0 0
872 2 2.5511284349588620e-01 -4.0727963275282377e+00 2.9266043129412900e+00 0 0 -3
710 1 1.8648373785971113e+00 -3.5064683274521991e+00 2.4920335626704979e+00 -1 -2 -2
230 1 2.8220051424803949e+00 -4.1218673424070902e+00 2.0998552742320484e+00 -1 0 1
897 2 2.4852127045394372e+00 -3.2002410512309551e+00 1.9370669232629827e+00 -1 0 1
353 1 1.8367517350694773e+00 -4.5839027682852427e+00 2.1455030928154644e+00 0 0 0
667 1 2.9474310848981711e+00 -3.2752198265932222e+00 2.6637837963961433e+00 1 1 -3