LAMMPS (31 Mar 2017)
Reading data file ...
  orthogonal box = (-4.705 -4.705 -4.705) to (4.705 4.705 4.705)
  1 by 2 by 2 MPI processor grid
  reading atoms ...
  1000 atoms
  reading velocities ...
  1000 velocities
Neighbor list info ...
  update every 1 steps, delay 10 steps, check yes
  max neighbors/atom: 2000, page size: 100000
  master list distance cutoff = 2.8
  ghost atom cutoff = 2.8
  binsize = 1.4, bins = 7 7 7
  1 neighbor lists, perpetual/occasional/extra = 1 0 0
  (1) pair lj/cut, perpetual
      attributes: half, newton on
      pair build: half/bin/atomonly/newton
      stencil: half/bin/3d/newton
      bin: standard
Setting up Verlet run ...
  Unit style    : lj
  Current step  : 0
  Time step     : 0.005
Per MPI rank memory allocation (min/avg/max) = 4.013 | 4.013 | 4.014 Mbytes
Step PotEng KinEng Press Temp 
       0   -6.6296703     1.488515    9.8564977   0.99333665 
   42400   -6.6905038    1.4853279    9.5722841   0.99120983 
   84800   -6.6830162    1.3883957    9.6153332   0.92652365 
  127200   -6.7725716    1.4201917    8.9502012   0.94774221 
  169600   -6.8340561    1.3538611    8.5174757   0.90347756 
  212000   -6.7841949    1.3779273    8.9192663   0.91953776 
  254400   -6.8199874    1.2889343    8.5812069   0.86014966 
  296800   -6.8951965    1.2863842    7.9556862   0.85844792 
  339200   -6.8440722    1.2115431    8.2906788   0.80850391 
  381600   -6.9354988    1.2139768    7.7998381   0.81012799 
  424000   -6.9920594    1.2006373     7.474243   0.80122606 
  466400   -7.0678154     1.151979    6.8722243   0.76875477 
  508800   -7.1101326    1.1687559    6.6824696   0.77995056 
  551200   -7.1655811     1.073956    6.2565804   0.71668737 
  593600   -7.1691535     1.016625    6.2457639   0.67842844 
  636000   -7.2263592    1.0390165    5.8543368   0.69337107 
  678400   -7.2231347     1.007864    5.9313527    0.6725819 
  720800   -7.2534843   0.97255734    5.6411552   0.64902058 
  763200   -7.3311512    0.9345011    5.0645852   0.62362436 
  805600   -7.3200038   0.89408918     5.093542   0.59665611 
  848000   -7.4165165   0.83953494    4.5625973   0.56025021 
  890400   -7.4185722   0.80847066    4.4766589   0.53951996 
  932800   -7.4951449   0.80171722    3.8815028   0.53501316 
  975200    -7.484895   0.74389302    3.9180524    0.4964251 
 1017600   -7.5767891   0.71295322    3.3943342   0.47577793 
 1060000   -7.6066655   0.67576501    3.1650376   0.45096097 
Loop time of 499.123 on 4 procs for 1060000 steps with 1000 atoms

Performance: 917449.438 tau/day, 2123.726 timesteps/s
93.6% CPU use with 4 MPI tasks x no OpenMP threads

MPI task timing breakdown:
Section |  min time  |  avg time  |  max time  |%varavg| %total
---------------------------------------------------------------
Pair    | 311.63     | 313.93     | 315.82     |   8.5 | 62.90
Neigh   | 77.725     | 78.093     | 78.551     |   3.4 | 15.65
Comm    | 84.632     | 87.363     | 89.662     |  19.2 | 17.50
Output  | 0.012166   | 0.012333   | 0.012801   |   0.2 |  0.00
Modify  | 11.487     | 11.738     | 12.008     |   6.9 |  2.35
Other   |            | 7.984      |            |       |  1.60

Nlocal:    250 ave 260 max 239 min
Histogram: 1 0 0 0 0 2 0 0 0 1
Nghost:    1672.5 ave 1678 max 1665 min
Histogram: 1 0 0 1 0 0 0 0 0 2
Neighs:    13770.8 ave 14191 max 13291 min
Histogram: 1 0 0 0 0 1 1 0 0 1

Total # of neighbors = 55083
Ave neighs/atom = 55.083
Neighbor list builds = 103170
Dangerous builds = 82500
Setting up Verlet run ...
  Unit style    : lj
  Current step  : 1060000
  Time step     : 0.005
Per MPI rank memory allocation (min/avg/max) = 4.014 | 4.014 | 4.014 Mbytes
Step PotEng KinEng Press Temp 
 1060000   -7.6066655   0.67576501    3.1650376   0.45096097 
 1102400   -7.5533454   0.71361615    3.5681523   0.47622032 
 1144800   -7.5611768   0.74589921    3.4206564    0.4977639 
 1187200   -7.5991549   0.68646583    3.2613829   0.45810199 
 1229600   -7.5652502   0.71143651    3.4576195   0.47476577 
 1272000   -7.5675679   0.67883935    3.3995339   0.45301258 
 1314400   -7.5801796   0.70751857    3.3193041    0.4721512 
 1356800   -7.5925405   0.67951641     3.251219   0.45346441 
 1399200   -7.5780123   0.69095369     3.489023   0.46109689 
 1441600   -7.5905041   0.70848886    3.3852623    0.4727987 
 1484000   -7.6008019   0.68030933    3.2457782   0.45399355 
 1526400   -7.6166063    0.6851962    3.1640296   0.45725472 
 1568800   -7.5791551   0.68977824    3.4484419   0.46031247 
 1611200   -7.5800274   0.69657147    3.4077938   0.46484583 
 1653600   -7.5644209   0.69923961    3.4153125   0.46662637 
 1696000    -7.572472    0.6882417    3.4006823   0.45928708 
 1738400   -7.6021975   0.71683333    3.1717736   0.47836726 
 1780800   -7.5841758   0.68459703    3.3467446   0.45685488 
 1823200   -7.5920567   0.66973971    3.2329139   0.44694008 
 1865600   -7.6085633   0.69073763    3.1426908   0.46095271 
 1908000   -7.5579674   0.68423369    3.3704821   0.45661241 
 1950400   -7.5838307   0.74762327    3.2576992   0.49891443 
 1992800   -7.5888724   0.70348855    3.2776634   0.46946183 
 2035200   -7.5800954   0.70699189    3.4101222   0.47179973 
 2077600   -7.5794584   0.71071878    3.4053345   0.47428681 
 2120000   -7.5893739   0.68863548    3.2247366   0.45954987 
 2162400   -7.6157686    0.6782636    3.0418667   0.45262836 
 2204800   -7.5916057   0.72349603    3.3525796    0.4828135 
 2247200   -7.6146179   0.68079172    3.0382647   0.45431546 
 2289600   -7.6227323   0.66967924     3.016408   0.44689973 
 2332000   -7.6197383   0.69691773     3.104766    0.4650769 
 2374400   -7.5668771    0.6942123    3.4045154   0.46327147 
 2416800   -7.6157111   0.66695576    3.1280066   0.44508225 
 2459200   -7.6168751   0.73918606    3.1713297   0.49328399 
 2501600   -7.6018389    0.7127948     3.232983    0.4756722 
 2544000   -7.6558839   0.75256517    2.9285784   0.50221232 
 2586400   -7.5997296   0.70309608     3.289811   0.46919992 
 2628800   -7.6182308    0.7500505    3.1218441    0.5005342 
 2671200   -7.5978087   0.71812834    3.3049022   0.47923146 
 2713600   -7.6090775   0.71670787    3.1763273   0.47828353 
 2756000   -7.5968903   0.72634791    3.2887569   0.48471666 
 2798400   -7.5893326   0.73785645    3.2745351   0.49239669 
 2840800   -7.6008918    0.6893909    3.2596334   0.46005399 
 2883200   -7.6053965   0.72430518    3.2146383   0.48335347 
 2925600   -7.6485511   0.71091535    2.9563204   0.47441798 
 2968000     -7.61283   0.71096681     3.103351   0.47445232 
 3010400   -7.5424483   0.73466631     3.596225    0.4902678 
 3052800   -7.5925328    0.7123693    3.2065379   0.47538825 
 3060000   -7.5855726   0.71109353    3.2447683   0.47453689 
Loop time of 919.007 on 4 procs for 2000000 steps with 1000 atoms

Performance: 940144.879 tau/day, 2176.261 timesteps/s
93.5% CPU use with 4 MPI tasks x no OpenMP threads

MPI task timing breakdown:
Section |  min time  |  avg time  |  max time  |%varavg| %total
---------------------------------------------------------------
Pair    | 574.35     | 588.39     | 605.15     |  45.5 | 64.02
Neigh   | 126.72     | 128.84     | 131.92     |  16.8 | 14.02
Comm    | 143.7      | 164.12     | 179.69     | 101.6 | 17.86
Output  | 0.022789   | 0.023104   | 0.02397    |   0.3 |  0.00
Modify  | 21.727     | 22.055     | 22.533     |   7.0 |  2.40
Other   |            | 15.58      |            |       |  1.70

Nlocal:    250 ave 254 max 244 min
Histogram: 1 0 0 0 0 1 0 0 0 2
Nghost:    1647.25 ave 1661 max 1637 min
Histogram: 1 0 1 0 1 0 0 0 0 1
Neighs:    13756.8 ave 14238 max 13335 min
Histogram: 1 0 0 1 1 0 0 0 0 1

Total # of neighbors = 55027
Ave neighs/atom = 55.027
Neighbor list builds = 171489
Dangerous builds = 18604
System init for write_data ...
Total wall time: 0:23:38
