LAMMPS (31 Mar 2017)
Reading data file ...
  orthogonal box = (-4.705 -4.705 -4.705) to (4.705 4.705 4.705)
  1 by 2 by 2 MPI processor grid
  reading atoms ...
  1000 atoms
  reading velocities ...
  1000 velocities
Neighbor list info ...
  update every 1 steps, delay 10 steps, check yes
  max neighbors/atom: 2000, page size: 100000
  master list distance cutoff = 2.8
  ghost atom cutoff = 2.8
  binsize = 1.4, bins = 7 7 7
  1 neighbor lists, perpetual/occasional/extra = 1 0 0
  (1) pair lj/cut, perpetual
      attributes: half, newton on
      pair build: half/bin/atomonly/newton
      stencil: half/bin/3d/newton
      bin: standard
Setting up Verlet run ...
  Unit style    : lj
  Current step  : 0
  Time step     : 0.005
Per MPI rank memory allocation (min/avg/max) = 4.013 | 4.013 | 4.013 Mbytes
Step PotEng KinEng Press Temp 
       0   -7.5855726   0.71109353    3.2447683   0.47453689 
     200   -7.5878066   0.70328655    3.2283336   0.46932703 
     400   -7.5890741   0.67504418    3.1974329   0.45047994 
     600   -7.6243081   0.68073934    3.0364183    0.4542805 
     800   -7.5923352   0.67847429    3.2148929   0.45276897 
    1000   -7.6219682   0.73227606    3.0737467   0.48867271 
    1200   -7.5868468   0.70562939    3.2144743   0.47089048 
    1400   -7.5724669   0.69383237    3.2745081   0.46301793 
    1600   -7.5945445   0.71715031    3.2044396   0.47857879 
    1800   -7.6011872   0.71172223    3.1600215   0.47495645 
    2000   -7.6290242   0.71536725    3.0138951   0.47738889 
    2200   -7.6123997   0.69010537    2.9555704   0.46053078 
    2400   -7.5916131   0.70427368    3.2310181   0.46998577 
    2600   -7.5880865    0.7250861     3.276231   0.48387461 
    2800   -7.5824825    0.7044702     3.278397   0.47011692 
    3000   -7.5903714   0.69086919    3.1853538    0.4610405 
    3200   -7.5869001   0.68284467    3.2869495   0.45568546 
    3400   -7.6014978   0.69865347    3.1447847   0.46623521 
    3600   -7.6117022   0.71259495    3.1342778   0.47553884 
    3800   -7.5896081   0.70622086     3.235806   0.47128519 
    4000   -7.5949087   0.73900242    3.2440371   0.49316144 
    4200   -7.5772635   0.70479978    3.3387815   0.47033686 
    4400   -7.6207501   0.71333599    3.0529958   0.47603336 
    4600   -7.6283931   0.71064296    3.0060881   0.47423621 
    4800   -7.6153869   0.70976782    3.1345759    0.4736522 
    5000   -7.5884516    0.7309504    3.3203979   0.48778805 
    5200    -7.559531    0.7174746    3.3806682   0.47879519 
    5400   -7.5923958    0.7212988    3.3380194   0.48134722 
    5600   -7.5770004    0.6842359    3.3134713   0.45661388 
    5800   -7.5968238   0.69059134    3.1920029   0.46085508 
    6000   -7.6024312    0.6901928    3.1173384   0.46058912 
    6200   -7.5869125   0.67093949    3.1686149   0.44774073 
    6400   -7.5865039   0.68840433    3.2953705   0.45939562 
    6600   -7.5793043   0.70666311    3.3834466   0.47158032 
    6800   -7.5893598   0.72194215    3.3407183   0.48177654 
    7000   -7.6028438   0.69684387    3.2044321   0.46502761 
    7200   -7.5958092   0.66574968     3.193868    0.4442774 
    7400   -7.6138168   0.69476919    3.1074708   0.46364311 
    7600   -7.6091852   0.71318398    3.1678698   0.47593192 
    7800   -7.5874667   0.70588604    3.2387717   0.47106176 
    8000   -7.5891903   0.70838632    3.1627913   0.47273028 
    8200   -7.6108525   0.72378213    3.1232604   0.48300443 
    8400   -7.5759537   0.67863472    3.4046676   0.45287602 
    8600   -7.5939322   0.69143737    3.3091513   0.46141967 
    8800   -7.5862643   0.69626229    3.2639717    0.4646395 
    9000    -7.574427   0.71446131    3.3587389   0.47678432 
    9200   -7.5694524   0.71364039    3.4897644    0.4762365 
    9400   -7.5931986   0.69314297    3.1649148   0.46255787 
    9600   -7.6160935   0.70222658    3.1284079   0.46861967 
    9800   -7.6159211   0.71258574    3.1288943    0.4755327 
   10000   -7.5690097   0.68899283    3.4691993   0.45978834 
   10200   -7.5917152   0.73066963    3.3109413   0.48760069 
   10400   -7.5740823   0.70132092    3.3537978    0.4680153 
   10600   -7.6021376   0.68687145    3.1473081   0.45837267 
   10800   -7.6149015   0.68787145    3.0519879   0.45904001 
   11000   -7.6176642   0.70840396    3.1114769   0.47274205 
   11200   -7.5884927   0.71642984    3.3552434   0.47809799 
   11400   -7.6016219   0.73296019    3.2516286   0.48912926 
   11600   -7.6157406   0.73476703    3.1253404   0.49033502 
   11800   -7.6200588   0.72003925    3.0681358   0.48050667 
   12000   -7.6192352   0.71622276    3.1253683    0.4779598 
   12200   -7.6131335   0.71724179    3.1466443   0.47863983 
   12400   -7.5998782   0.71793949     3.229065   0.47910543 
   12600   -7.5902416   0.72500264    3.3238852   0.48381891 
   12800   -7.5862914   0.72434407    3.3401829   0.48337943 
   13000   -7.6072693   0.71041331    3.2104522   0.47408295 
   13200   -7.6133961   0.68720616    3.1711854   0.45859603 
   13400     -7.62088   0.70597235    3.1182413   0.47111936 
   13600    -7.599508   0.71779903    3.3039818    0.4790117 
   13800   -7.5854871   0.71910325    3.3257926   0.47988205 
   14000   -7.6097915   0.73261598    3.1784627   0.48889955 
   14200   -7.6199603   0.73253853    3.1200752   0.48884787 
   14400   -7.6058364   0.70799795    3.2365255    0.4724711 
   14600   -7.6263215   0.71459389    2.9753146    0.4768728 
   14800   -7.6320425   0.68988097    3.0508247   0.46038103 
   15000    -7.630376   0.68133575    2.9742394   0.45467851 
   15200   -7.6184973   0.71763941     3.155693   0.47890518 
   15400   -7.6031193   0.71809219    3.1923071   0.47920734 
   15600   -7.5775266   0.69535638    3.3249737   0.46403496 
   15800   -7.5903002   0.69355901    3.2516896   0.46283551 
   16000   -7.5978664   0.66411956    3.1951459   0.44318956 
   16200   -7.6251057   0.68698337    3.0766221   0.45844736 
   16400   -7.6107423   0.72169007    3.2034353   0.48160832 
   16600   -7.5857441   0.71110732    3.3136299   0.47454609 
   16800   -7.6049396   0.71345692    3.2537261   0.47611406 
   17000   -7.6114694   0.69370487    3.1012901   0.46293284 
   17200   -7.6057424    0.6762778    3.2052026   0.45130317 
   17400   -7.5836694   0.67902204    3.2668348    0.4531345 
   17600   -7.5750318   0.71620812    3.3893707   0.47795003 
   17800   -7.5801507    0.7062037    3.3569966   0.47127374 
   18000   -7.5949139   0.69028698    3.2093588   0.46065197 
   18200   -7.5968307   0.67984972    3.2597323   0.45368683 
   18400   -7.5997571   0.68935483    3.1942042   0.46002992 
   18600   -7.6281774   0.73350589    3.0665035   0.48949342 
   18800   -7.5901441   0.74943415    3.3295548   0.50012289 
   19000   -7.5753613     0.731155    3.3442472   0.48792459 
   19200   -7.6038291   0.71783694    3.2114346     0.479037 
   19400    -7.620906    0.7159225     3.094142   0.47775943 
   19600   -7.5885733   0.67447709    3.2131048    0.4501015 
   19800   -7.6276121   0.71699846    3.0527856   0.47847745 
   20000    -7.575844   0.69780605     3.410986   0.46566971 
   20200   -7.5587816   0.70269219    3.5156752   0.46893039 
   20400   -7.5699754   0.68930701    3.4221604     0.459998 
   20600   -7.6136114   0.69431796     3.129701   0.46334198 
   20800   -7.5958992   0.68066769    3.2543056   0.45423269 
   21000   -7.6071482   0.71168164    3.1225942   0.47492935 
   21200   -7.5732264   0.69677517    3.4150377   0.46498176 
   21400   -7.5710815   0.70609134    3.3744331   0.47119876 
   21600   -7.5865195   0.71448027    3.3196723   0.47679698 
   21800   -7.6042567    0.6972434    3.2529082   0.46529423 
   22000   -7.6330898   0.71002878    3.0008792   0.47382634 
   22200   -7.6083161   0.69772643    3.1873795   0.46561657 
   22400   -7.6006328   0.73444962    3.1817684    0.4901232 
   22600   -7.5676422   0.70873343    3.3765615   0.47296191 
   22800   -7.6006005   0.72344022    3.2442753   0.48277626 
   23000   -7.6033483   0.71179579    3.1426582   0.47500553 
   23200   -7.5992375   0.69482947    3.1771149   0.46368333 
   23400   -7.6433025   0.72477133    3.0048273   0.48366455 
   23600   -7.6161309   0.68294534    3.1726772   0.45575265 
   23800   -7.6172152   0.67583856    3.1501512   0.45101005 
   24000   -7.6227549   0.71526265    3.1339125   0.47731908 
   24200   -7.6011785   0.72185002     3.267377   0.48171506 
   24400   -7.6045485    0.7241757    3.2474241   0.48326707 
   24600   -7.6125117   0.70685276    3.1385887   0.47170688 
   24800    -7.613875   0.66634287    3.0832345   0.44467326 
   25000   -7.6521152    0.7097645    2.9137151   0.47364998 
   25200    -7.613896   0.69674429    3.0981704   0.46496115 
   25400   -7.6098821   0.70498142    3.1378103   0.47045807 
   25600   -7.5974867   0.70643274    3.2499235   0.47142659 
   25800   -7.6021108   0.72514085    3.2300307   0.48391114 
   26000   -7.6100889   0.72297049    3.2142299   0.48246279 
   26200   -7.6167023   0.68762072    3.0818065   0.45887269 
   26400   -7.6319081   0.69797926    3.0772376   0.46578529 
   26600   -7.6055085   0.69356507    3.2999604   0.46283955 
   26800   -7.5929018   0.70340867    3.2697414   0.46940852 
   27000   -7.5797764   0.69312117    3.3094065   0.46254333 
   27200   -7.5980632   0.70353967    3.3024772   0.46949594 
   27400    -7.588215   0.67252262    3.2725534   0.44879721 
   27600   -7.6436855   0.71588704    2.9484169   0.47773576 
   27800   -7.6241851   0.70745891    3.0646631   0.47211139 
   28000   -7.5979074   0.72762783    3.1962092   0.48557079 
   28200   -7.5682986   0.70508425    3.4443795   0.47052669 
   28400   -7.5999212    0.7103969    3.2785541   0.47407201 
   28600    -7.642923   0.72719619    3.0346887   0.48528274 
   28800   -7.6201122   0.70559973    3.0325482   0.47087069 
   29000   -7.6122413   0.70826407    3.2142255   0.47264869 
   29200   -7.5814818   0.68872229    3.3540487    0.4596078 
   29400   -7.5909973   0.71053184    3.2334168   0.47416206 
   29600   -7.5819216   0.72031109    3.3993809   0.48068808 
   29800   -7.5867251    0.7160727    3.3305326   0.47785966 
   30000   -7.6355484   0.72361895    3.0769133   0.48289553 
   30200    -7.606982   0.68346961    3.1518846   0.45610251 
   30400   -7.6092269   0.69916187    3.1250307   0.46657449 
   30600   -7.5748183    0.7065546    3.3558548   0.47150791 
   30800   -7.5866272   0.72670255    3.3427506   0.48495332 
   31000    -7.591078   0.71592971     3.284099   0.47776424 
   31200   -7.5930184   0.70044413    3.2806827   0.46743018 
   31400   -7.5854955   0.67761596    3.3511362   0.45219617 
   31600   -7.5990127   0.68299498    3.1658199   0.45578577 
   31800   -7.6077986   0.71020887    3.0920581   0.47394653 
   32000   -7.5703636   0.70864191    3.3258242   0.47290084 
   32200   -7.5729215   0.71179055    3.3330804   0.47500204 
   32400   -7.5919495   0.69356055    3.2314473   0.46283654 
   32600   -7.6080184   0.68818427    3.1736005   0.45924876 
   32800   -7.6015707   0.68811847    3.2406163   0.45920485 
   33000   -7.6169682   0.71688186    3.1268448   0.47839964 
   33200    -7.588813   0.70794669    3.3061679    0.4724369 
   33400   -7.5782831   0.73612997     3.380073   0.49124456 
   33600   -7.5735125   0.75146971     3.388887   0.50148129 
   33800    -7.601933    0.7330083    3.2151372   0.48916136 
   34000   -7.5902742   0.69727997    3.1739614   0.46531863 
   34200   -7.6223426    0.7113164    2.9918793   0.47468562 
   34400   -7.6088816    0.6921841    3.1585288   0.46191798 
   34600   -7.5990082   0.69950099    3.1235867   0.46680079 
   34800   -7.5893362   0.71766507    3.2688479    0.4789223 
   35000   -7.5995094   0.74120931    3.2190752   0.49463418 
   35200   -7.5883749    0.6875259    3.2830261   0.45880941 
   35400   -7.6018201   0.67535016    3.1273457   0.45068413 
   35600    -7.602482   0.68074101    3.1672747   0.45428162 
   35800   -7.6124898   0.71765578    3.1574927    0.4789161 
   36000   -7.6017196   0.73791809    3.2543488   0.49243783 
   36200   -7.6012534   0.72877924    3.2369182   0.48633917 
   36400   -7.6235607   0.69040067    3.0210589   0.46072784 
   36600   -7.6102256   0.68027422    3.1396028   0.45397011 
   36800   -7.6138079   0.71018471    3.1927787    0.4739304 
   37000   -7.5958776   0.71589399    3.2720249    0.4777404 
   37200   -7.5910794   0.70773598    3.2927444   0.47229629 
   37400   -7.6555933   0.73368843    2.8901873   0.48961524 
   37600   -7.6389868   0.69794096    3.0412958   0.46575974 
   37800    -7.616644    0.6898963    3.1370418   0.46039126 
   38000   -7.6108848   0.70440929    3.0661319   0.47007627 
   38200   -7.6044865   0.70654112    3.2047724   0.47149891 
   38400   -7.6036841   0.71403545    3.1849127   0.47650013 
   38600   -7.5893872   0.71456275    3.2576292   0.47685202 
   38800   -7.5610616   0.72248519    3.5531396   0.48213893 
   39000   -7.5641376   0.71790539    3.4786301   0.47908267 
   39200   -7.5828968   0.69251449    3.3314057   0.46213847 
   39400   -7.5947444   0.69086806    3.2253071   0.46103974 
   39600   -7.5954112   0.68959756    3.1999692    0.4601919 
   39800   -7.5975508   0.71466741    3.2597597   0.47692186 
   40000   -7.5691439   0.72362439    3.4859834   0.48289916 
   40200   -7.5809091    0.7260063    3.3186469   0.48448869 
   40400   -7.6161943   0.71871412    3.1179311   0.47962237 
   40600   -7.6059401   0.69977869    3.1845962   0.46698611 
   40800   -7.6215169   0.71693207    3.2253962   0.47843314 
   41000   -7.6043934   0.72008663    3.2206252   0.48053829 
   41200   -7.5975416    0.7246349    3.1863159    0.4835735 
   41400   -7.6040067   0.70980644     3.237103   0.47367797 
   41600   -7.6111955   0.68061406    3.0893114    0.4541969 
   41800   -7.5981922   0.67123602    3.1827232   0.44793862 
   42000   -7.5830464   0.69094929    3.3467913   0.46109396 
   42200   -7.6026847   0.72398146    3.2247739   0.48313744 
   42400   -7.6040007    0.7147187    3.1480972   0.47695609 
   42600   -7.5780429   0.67622512    3.2669043   0.45126802 
   42800   -7.5768977   0.65681668    3.2864465    0.4383161 
   43000   -7.6478707   0.69384086    2.9429926    0.4630236 
   43200   -7.6356317   0.67197479    2.9864757   0.44843162 
   43400   -7.6086791   0.69440164    3.1613555   0.46339782 
   43600   -7.6014949   0.70760751     3.168488   0.47221055 
   43800   -7.6002854   0.71679544    3.2175774   0.47834197 
   44000   -7.5901078   0.71694257    3.1805711   0.47844015 
   44200   -7.6033071   0.72531468    3.2380652   0.48402715 
   44400   -7.6153251   0.70203361    3.1455988    0.4684909 
   44600   -7.5985182   0.66995558    3.2252314   0.44708414 
   44800   -7.6097305   0.70393792    3.1841329   0.46976171 
   45000   -7.5910211   0.72755476    3.3424967   0.48552203 
   45200   -7.5942844   0.72142131    3.2109338   0.48142897 
   45400   -7.6127169     0.716779    3.1962934     0.478331 
   45600   -7.6005807   0.69028195    3.2390111   0.46064862 
   45800   -7.5993225   0.69328404    3.3099289   0.46265201 
   46000   -7.5854547   0.73296134    3.3719802   0.48913002 
   46200   -7.5679312   0.72124598    3.3912082   0.48131197 
   46400    -7.595899   0.71181709    3.3137239   0.47501975 
   46600   -7.6037205   0.70009916    3.2299676   0.46719997 
   46800   -7.5979005   0.69431805    3.3469953   0.46334204 
   47000   -7.6046447   0.71462316    3.2154944   0.47689234 
   47200   -7.5357046   0.69421069    3.6626141    0.4632704 
   47400   -7.5697028   0.73269032    3.4384326   0.48894916 
   47600    -7.587595   0.71593552    3.3174777   0.47776812 
   47800   -7.5943089   0.70506993    3.3517146   0.47051714 
   48000   -7.5924352   0.69255873    3.2265012   0.46216799 
   48200   -7.6237825   0.72343663    3.0841362   0.48277386 
   48400   -7.5845347   0.70433769    3.2354252   0.47002849 
   48600   -7.5702985   0.72259414    3.5055175   0.48221164 
   48800    -7.555852   0.70032198    3.5240755   0.46734867 
   49000   -7.5779018    0.6768457    3.3230837   0.45168215 
   49200   -7.6017884   0.69099173    3.1190597   0.46112227 
   49400   -7.5986304   0.70423703    3.2083874   0.46996131 
   49600   -7.5766053   0.70365871    3.4360485   0.46957538 
   49800   -7.5656225   0.69566709    3.4122584    0.4642423 
   50000   -7.6119568   0.69621343    3.0909186   0.46460689 
   50200   -7.6129092   0.67508591     3.091905   0.45050778 
   50400   -7.6096455   0.69595981    3.1500067   0.46443764 
   50600   -7.5941959   0.71339324     3.328629   0.47607157 
   50800    -7.574857   0.69910489     3.374258   0.46653647 
   51000   -7.5817114   0.68994057    3.3397157    0.4604208 
   51200    -7.606558   0.68880952     3.063085   0.45966602 
   51400   -7.6299262   0.66778252    2.9884384   0.44563398 
   51600   -7.6032679   0.64207105    3.1910304   0.42847584 
   51800   -7.5855093   0.68098118    3.2993558   0.45444189 
   52000   -7.5783252    0.6911569    3.2906831    0.4612325 
   52200   -7.6071444   0.73360675    3.1880055   0.48956073 
   52400   -7.5889476   0.71737572    3.3339268   0.47872921 
   52600   -7.6158994   0.72075972    3.1358863   0.48098747 
   52800   -7.6323818   0.70694688    2.9709341   0.47176969 
   53000   -7.6286925   0.70036055    3.0684552   0.46737441 
   53200   -7.5947189   0.71555972    3.2743553   0.47751733 
   53400   -7.5823855   0.72375635    3.4191944   0.48298722 
   53600    -7.586553   0.70372408    3.2692153   0.46961901 
   53800   -7.6168675   0.70793086    3.0979322   0.47242633 
   54000   -7.6086033   0.69042139    3.1107663   0.46074167 
   54200   -7.6044492   0.69722173    3.1962148   0.46527976 
   54400   -7.6029949   0.71869885    3.1918242   0.47961218 
   54600   -7.5897346   0.73023115    3.3279509   0.48730807 
   54800   -7.5761467   0.73790322    3.4552906   0.49242791 
   55000   -7.6051505   0.72766852    3.2310236   0.48559794 
   55200   -7.6020753   0.69026207    3.1783762   0.46063535 
   55400   -7.5939778   0.67305051    3.2426871   0.44914949 
   55600   -7.6094212   0.70209757    3.1034687   0.46853358 
   55800   -7.5884595   0.71831013    3.3191578   0.47935278 
   56000   -7.5562509   0.69958686    3.4121761    0.4668581 
   56200   -7.6045748   0.70535765    3.1105902   0.47070914 
   56400   -7.6076857    0.6796594    3.1139072   0.45355983 
   56600   -7.6063506    0.6940689    3.1981406   0.46317577 
   56800   -7.5810598   0.69725173    3.2532735   0.46529979 
   57000    -7.614368   0.74599771    3.0900136   0.49782964 
   57200   -7.6209457   0.73177745    3.2141958   0.48833997 
   57400   -7.6168884   0.67971459    3.1304233   0.45359666 
   57600   -7.6143615   0.68805617    3.0432178   0.45916328 
   57800   -7.6001624    0.6982912     3.224095   0.46599346 
   58000   -7.5868968   0.70647281    3.2994232   0.47145333 
   58200   -7.6077709   0.72308254    3.2160279   0.48253756 
   58400   -7.6152163   0.70202197     3.121039   0.46848313 
   58600   -7.6506514   0.68808681    2.8571712   0.45918372 
   58800   -7.6315111   0.69260107    2.9870175   0.46219624 
   59000   -7.5857243    0.6809911    3.1890074   0.45444852 
   59200   -7.5989157   0.71058278     3.131977   0.47419605 
   59400   -7.5974505   0.71565108    3.2140905    0.4775783 
   59600   -7.5863832   0.69046033    3.3288433   0.46076766 
   59800   -7.6234971    0.6880481    3.0303448   0.45915789 
   60000   -7.6341855   0.69464417    3.0270318   0.46355967 
   60200   -7.6141669   0.71332206    3.0742341   0.47602406 
   60400   -7.5725464   0.68812826    3.3747854   0.45921138 
   60600   -7.5816338   0.69966379    3.3813825   0.46690943 
   60800   -7.5929775   0.69887531    3.3484419   0.46638326 
   61000   -7.6324144   0.70689471    3.0313051   0.47173488 
   61200   -7.6327075   0.68379165    2.9452779   0.45631741 
   61400   -7.6182849   0.70406472    3.1763015   0.46984633 
   61600   -7.6139464   0.73603676    3.1761761   0.49118235 
   61800   -7.6014063   0.71839817    3.2672706   0.47941153 
   62000   -7.6071663   0.70065126    3.3269945   0.46756841 
   62200   -7.6246233   0.70243901    3.0206807   0.46876143 
   62400   -7.6235646   0.72123074    3.1290974    0.4813018 
   62600   -7.5715661   0.71453409    3.3877026   0.47683289 
   62800    -7.600513   0.73883582     3.258645   0.49305026 
   63000   -7.5985304   0.70403481    3.2135604   0.46982637 
   63200   -7.5676377   0.66034711    3.4444466   0.44067208 
   63400   -7.6077854   0.70767811    3.2088618   0.47225767 
   63600    -7.610241   0.71995655    3.1297087   0.48045148 
   63800   -7.5889938   0.70286376    3.2492618   0.46904489 
   64000   -7.5745464   0.68726587    3.3074907   0.45863588 
   64200   -7.6070741   0.71311537    3.0939229   0.47588613 
   64400   -7.5958514   0.70256047    3.1947378   0.46884249 
   64600   -7.5846508   0.70377568    3.2743725   0.46965344 
   64800   -7.5808772   0.71098306    3.3081557   0.47446317 
   65000   -7.5807318   0.70917154    3.3388594   0.47325428 
   65200   -7.5932063   0.68817277     3.188334   0.45924108 
   65400   -7.6269022   0.70462188    3.0990777   0.47021814 
   65600   -7.5914188    0.6951926    3.2670139   0.46392566 
   65800   -7.5884768   0.73291049    3.2329752   0.48909609 
   66000   -7.5812367   0.71937697    3.2872724   0.48006471 
   66200   -7.6132429    0.7295365    3.1235623   0.48684451 
   66400   -7.6228372   0.72104467    3.1172306   0.48117763 
   66600    -7.607373   0.70498735    3.1478998   0.47046203 
   66800   -7.6082687   0.74702166     3.176914   0.49851295 
   67000   -7.5692157   0.73655828    3.3624117   0.49153038 
   67200   -7.5697257   0.70817909    3.3391086   0.47259198 
   67400   -7.6088627   0.71956182    3.1266369   0.48018807 
   67600   -7.5863615   0.69003004    3.2493603   0.46048051 
   67800   -7.5801063   0.68808682    3.2888829   0.45918373 
   68000   -7.5966012   0.71874959    3.1365447   0.47964604 
   68200   -7.5836398   0.73239397    3.3119782    0.4887514 
   68400   -7.5853618   0.72345879    3.2346834   0.48278865 
   68600   -7.5960782   0.69354272    3.1511745   0.46282464 
   68800   -7.5872671   0.67452379    3.1655308   0.45013266 
   69000   -7.6044061   0.70112794    3.1270647   0.46788651 
   69200   -7.5929618   0.71883439    3.2636514   0.47970263 
   69400    -7.581842   0.74930328    3.4761277   0.50003555 
   69600    -7.586088   0.73216583    3.2696865   0.48859915 
   69800   -7.5940903    0.6914238    3.1924734   0.46141061 
   70000   -7.6119758   0.70139576    3.1513542   0.46806524 
   70200   -7.6032071   0.69404671    3.1657264   0.46316097 
   70400   -7.6060725   0.71591832    3.0615631   0.47775664 
   70600   -7.5780084   0.70778697    3.2484176   0.47233031 
   70800   -7.5799297   0.70446188    3.2663585   0.47011136 
   71000   -7.5912641   0.66873591    3.2314749   0.44627021 
   71200   -7.6164095   0.68481418    3.0847016   0.45699979 
   71400   -7.6076769   0.69899031    3.1390413      0.46646 
   71600   -7.5998105   0.71504628    3.1291156    0.4771747 
   71800   -7.5934318   0.71069437    3.2642475   0.47427052 
   72000   -7.5971143   0.70604549    3.2193868   0.47116816 
   72200   -7.5984502   0.69811539    3.0883349   0.46587613 
   72400   -7.6283264   0.69144707    2.9707577   0.46142614 
   72600   -7.6230171   0.66696127    2.9804187   0.44508593 
   72800   -7.6101629   0.69845784    3.1202996   0.46610467 
   73000   -7.6223852   0.72814333    3.0972828    0.4859148 
   73200   -7.6193407   0.73244742    3.0498232   0.48878707 
   73400   -7.5900211   0.70422657    3.1889753   0.46995433 
   73600   -7.5963804   0.69510112    3.1371859   0.46386461 
   73800   -7.6039659   0.67024167    3.1662502   0.44727506 
   74000   -7.6139387    0.6764691     3.044341   0.45143083 
   74200   -7.5920913   0.70296262    3.2853033   0.46911086 
   74400   -7.5951161   0.72002467     3.186153   0.48049694 
   74600   -7.5807595   0.69650055    3.1566683    0.4647985 
   74800   -7.5757373    0.6738787    3.3404276   0.44970217 
   75000     -7.60171   0.67884571    3.0754675   0.45301682 
   75200   -7.6091515   0.66235219    3.0935491   0.44201014 
   75400   -7.6011722   0.67207447    3.1058067   0.44849815 
   75600   -7.5826174   0.69779538    3.2680114   0.46566258 
   75800   -7.5941123    0.7194286    3.2090533   0.48009917 
   76000   -7.5865093   0.70282802    3.2626711   0.46902103 
   76200   -7.5970635   0.68760113    3.1643679   0.45885961 
   76400   -7.6238394   0.68467688    2.9833326   0.45690816 
   76600   -7.6271687    0.6965634    3.0092919   0.46484044 
   76800   -7.5852625   0.70915002    3.1814994   0.47323992 
   77000   -7.5906421   0.71667994     3.222852   0.47826489 
   77200   -7.6143949   0.72015033    3.0371469    0.4805808 
   77400   -7.6066522   0.68262352    3.1341024   0.45553788 
   77600   -7.6329287   0.71020004    2.9659313   0.47394064 
   77800   -7.5862525   0.72090837    3.2422901   0.48108667 
   78000   -7.5587339   0.69961004      3.47814   0.46687357 
   78200   -7.6199204   0.73590229    2.9968728   0.49109262 
   78400   -7.5948937    0.6861396    3.1843641   0.45788428 
   78600   -7.6026968   0.69511912    3.0902508   0.46387662 
   78800   -7.5832014   0.70690826    3.3060978   0.47174392 
   79000   -7.5708025   0.73257648    3.3220249   0.48887319 
   79200   -7.5784532   0.71705301    3.2992577   0.47851385 
   79400   -7.6002583   0.70594768    3.2313271   0.47110289 
   79600   -7.6090071   0.70188204    3.0639295   0.46838975 
   79800   -7.5970913   0.68993684    3.2403612   0.46041831 
   80000   -7.6142899   0.72634464    3.0701596   0.48471448 
   80200   -7.5729958    0.7250891    3.4151542   0.48387661 
   80400   -7.5864878   0.72579663    3.3724166   0.48434877 
   80600   -7.5803224   0.67430105    3.2788284   0.44998402 
   80800   -7.6188045   0.70698345    3.0810675   0.47179409 
   81000   -7.6134129   0.70474064    3.1388821   0.47029739 
   81200   -7.6086396    0.7174391     3.125566    0.4787715 
   81400   -7.5936192   0.73136873    3.1879026   0.48806722 
   81600   -7.5980716   0.73968684    3.1688403   0.49361818 
   81800   -7.6127001   0.70798027    3.1098379   0.47245931 
   82000   -7.6290214   0.70004768    2.9340372   0.46716562 
   82200   -7.6417937   0.72452377    2.9096077   0.48349934 
   82400   -7.5996247   0.71057731    3.2214473    0.4741924 
   82600   -7.5641539   0.69026393    3.3995755   0.46063659 
   82800   -7.5856877   0.69740476    3.2897833   0.46540191 
   83000   -7.6137785   0.68337797    3.1528166   0.45604135 
   83200   -7.6063558   0.67558837    3.1326401   0.45084309 
   83400   -7.6240623   0.72538758    3.0675399    0.4840758 
   83600   -7.5973766   0.72205018    3.2864423   0.48184864 
   83800   -7.6000795   0.71628225    3.1634805    0.4779995 
   84000    -7.616617   0.71444894    3.1223375   0.47677607 
   84200   -7.6108504   0.70040938    3.1170034   0.46740699 
   84400   -7.6009431   0.69467187    3.1898717   0.46357816 
   84600   -7.5898047    0.6873283    3.2356265   0.45867755 
   84800   -7.5992257   0.70565802    3.1568417   0.47090959 
   85000   -7.5820049   0.70221969    3.3333532   0.46861508 
   85200   -7.6045788   0.72437595    3.2526704    0.4834007 
   85400   -7.6177385   0.70562103    3.0838995    0.4708849 
   85600   -7.6266424   0.69281655    3.0144096   0.46234004 
   85800   -7.6256339   0.70898928    3.0112429   0.47313265 
   86000   -7.6069767   0.73379971    3.1554153    0.4896895 
   86200    -7.591417   0.71848887    3.2413501   0.47947205 
   86400   -7.6158906   0.72342462    3.1578743   0.48276584 
   86600   -7.6093319    0.6949836    3.1733646   0.46378618 
   86800   -7.6015367   0.67896057    3.1475729   0.45309347 
   87000   -7.5947584   0.69476963    3.2951721    0.4636434 
   87200    -7.562843   0.70601025    3.4619818   0.47114464 
   87400   -7.5643242   0.69725504    3.4272417   0.46530199 
   87600   -7.6005112    0.6969993    3.2809712   0.46513133 
   87800   -7.6131783   0.69447897    3.1419962   0.46344943 
   88000   -7.6043769   0.68816713    3.2016557   0.45923733 
   88200   -7.6049427   0.71111039    3.2592661   0.47454814 
   88400   -7.5777377   0.73167338    3.3503046   0.48827053 
   88600   -7.5679028   0.72052447    3.4612502   0.48083048 
   88800   -7.5953569   0.71337029    3.2367237   0.47605625 
   89000   -7.5940319    0.6982078    3.2044239    0.4659378 
   89200   -7.6288016   0.71391577     2.953948   0.47642027 
   89400   -7.6252525   0.70270735    3.0871636   0.46894051 
   89600   -7.6267841   0.71674013    2.9460467   0.47830506 
   89800   -7.5905637   0.71735769    3.2439428   0.47871718 
   90000   -7.5795829   0.71074987    3.2996923   0.47430756 
   90200   -7.6117447   0.70150995    3.1100383   0.46814144 
   90400   -7.6246546   0.69554792    3.0175197   0.46416278 
   90600   -7.5877264   0.67022918    3.2897221   0.44726672 
   90800   -7.6009353   0.70929223    3.2040906   0.47333482 
   91000   -7.5907875   0.71668634    3.2566898   0.47826916 
   91200   -7.5832046   0.69227641    3.4164903   0.46197958 
   91400   -7.6121942   0.67290307    3.0600843    0.4490511 
   91600   -7.6247706   0.68387444    3.0502473   0.45637266 
   91800   -7.6286193   0.71887009    3.0116968   0.47972646 
   92000   -7.6119348   0.72054952    3.1325317   0.48084719 
   92200   -7.5993988   0.70441732     3.187169   0.47008163 
   92400   -7.6085681   0.70282137    3.1315096    0.4690166 
   92600   -7.6203803   0.70644785    3.1476884   0.47143667 
   92800   -7.6369008   0.68290289    2.9704084   0.45572432 
   93000   -7.6422915   0.68945875    2.9714689   0.46009927 
   93200   -7.6158984   0.70530004    3.0768834    0.4706707 
   93400   -7.6117715   0.71872013    3.1165157   0.47962638 
   93600   -7.6072997    0.7152274    3.1244049   0.47729556 
   93800   -7.6075231   0.69425536    3.1537059   0.46330021 
   94000   -7.6277232   0.67627624     3.060682   0.45130213 
   94200   -7.6444115   0.69988955    2.9590085   0.46706009 
   94400   -7.5949433   0.70168025    3.2861732   0.46825509 
   94600   -7.6058458   0.71731528    3.1429589   0.47868888 
   94800   -7.5991108   0.69403137    3.2242443   0.46315073 
   95000   -7.6195298   0.69525818    3.0835606   0.46396942 
   95200   -7.6238128   0.68924657    3.1346952   0.45995767 
   95400   -7.6157113   0.71029055    3.0847316   0.47400103 
   95600   -7.6119796   0.74265398    3.2672779   0.49559825 
   95800   -7.6280956   0.75262354    3.0833797   0.50225128 
   96000   -7.6114947   0.70494873    3.1438122   0.47043626 
   96200   -7.6147564    0.6866872    3.1140619   0.45824972 
   96400   -7.6094072   0.68421263    3.1341035   0.45659835 
   96600   -7.6286058   0.71338369    3.0551388   0.47606519 
   96800   -7.6046645   0.71127937    3.2487315   0.47466091 
   97000   -7.5763882   0.71221001    3.2763999   0.47528195 
   97200   -7.5704569   0.72784998    3.4592332   0.48571904 
   97400   -7.5866567   0.71340063     3.352545    0.4760765 
   97600   -7.6072576   0.69446644    3.0922013   0.46344107 
   97800    -7.630762    0.7065084    3.0821412   0.47147707 
   98000   -7.6444908   0.71880113     2.919574   0.47968043 
   98200   -7.6340812   0.72939235    3.0951676   0.48674832 
   98400    -7.609319    0.7399455    3.2475964   0.49379079 
   98600   -7.6078429   0.73350049    3.2172662   0.48948982 
   98800   -7.6109585   0.68694598    3.0831698   0.45842241 
   99000   -7.6015717   0.66795931    3.1499406   0.44575196 
   99200   -7.6274103   0.71221717    3.0392271   0.47528674 
   99400   -7.6265879   0.73694131     3.095828   0.49178599 
   99600   -7.6109083   0.73443112    3.1512233   0.49011086 
   99800   -7.5959546   0.69451149    3.2460658   0.46347113 
  100000   -7.6351561   0.69086483    2.9130208   0.46103759 
  100200   -7.6114872   0.67946742    3.1578523   0.45343171 
  100400   -7.5831495   0.68750522    3.2337027   0.45879561 
  100600    -7.608024   0.72371424    3.2369123   0.48295912 
  100800   -7.6330298   0.73997581    2.9809505   0.49381102 
  101000   -7.6065491   0.69176495    3.1470618   0.46163827 
  101200   -7.6390101   0.67898384    2.9401268     0.453109 
  101400   -7.6386814   0.68005216    2.8002922   0.45382193 
  101600   -7.6159857   0.69093678    3.0182032    0.4610856 
  101800    -7.599818   0.69433328    3.1742814    0.4633522 
  102000   -7.5862172    0.7022586    3.3170797   0.46864104 
  102200   -7.6132472   0.73892434    3.1490497   0.49310934 
  102400   -7.5948804   0.70983372    3.2351829   0.47369618 
  102600   -7.5990398   0.67591125    3.2361257   0.45105856 
  102800    -7.608516   0.67186981    3.1410709   0.44836157 
  103000   -7.6150537    0.7057041    3.1278718   0.47094034 
  103200   -7.5906781    0.7205271    3.2679931   0.48083223 
  103400   -7.6097981   0.73533787     3.089998   0.49071596 
  103600   -7.6245024    0.7233967    3.0359053   0.48274721 
  103800   -7.6260878   0.70344334    2.9511105   0.46943166 
  104000   -7.5988655   0.67055132    3.1443002    0.4474817 
  104200   -7.5845273   0.70515702    3.2438898   0.47057525 
  104400    -7.553071   0.69393193    3.4554016   0.46308437 
  104600   -7.6032772   0.72252254    3.2469473   0.48216385 
  104800   -7.6236792   0.70788401    3.0229805   0.47239507 
  105000   -7.6343197   0.71130076    3.0048799   0.47467518 
  105200   -7.6116594    0.7016861     3.225148   0.46825899 
  105400   -7.5950546   0.70100288    3.2156753   0.46780306 
  105600   -7.6023184   0.74276157    3.1746666   0.49567005 
  105800   -7.5530075   0.73219906    3.5054667   0.48862133 
  106000   -7.5713345   0.71429061    3.3647141   0.47667041 
  106200   -7.6077623   0.71900511    3.1340152   0.47981656 
  106400   -7.5918805   0.68196479    3.2844595   0.45509829 
  106600   -7.6109231   0.68932672    3.2001591   0.46001116 
  106800   -7.6145716   0.69746237    3.1284104   0.46544035 
  107000   -7.6182744   0.73185792    3.1795656   0.48839367 
  107200   -7.6088482   0.74443767     3.141511   0.49678857 
  107400   -7.5943854   0.71041626    3.2630814   0.47408492 
  107600   -7.6215663   0.69687238     3.108231   0.46504663 
  107800   -7.6087248   0.68882946    3.1514622   0.45967932 
  108000   -7.6043824   0.70081321    3.1269632   0.46767648 
  108200   -7.5748241   0.68442814    3.3693808   0.45674217 
  108400   -7.6015702   0.71214088    3.2749143   0.47523582 
  108600   -7.6251441   0.73448953    3.0315746   0.49014984 
  108800   -7.6147784   0.68363832    3.0323164   0.45621509 
  109000    -7.641454   0.69279787    2.9206032   0.46232757 
  109200   -7.6107619   0.69053312    3.1195411   0.46081623 
  109400   -7.5935257   0.70938569    3.2246307   0.47339719 
  109600   -7.5945922   0.71149121    3.2922447   0.47480227 
  109800   -7.6007996    0.7091107    3.1545679   0.47321368 
  110000   -7.6190885   0.69106307    3.0422095   0.46116988 
  110200   -7.6368161   0.68237884    2.9573882    0.4553746 
  110400    -7.606397   0.67278767    3.0877787   0.44897409 
  110600   -7.5984499    0.6902205    3.1692595   0.46060761 
  110800   -7.6087349   0.70984901    3.1869733   0.47370638 
  111000   -7.6049051   0.71150049    3.1513401   0.47480847 
  111200    -7.613125   0.71919626    3.0899387   0.47994412 
  111400   -7.6183428   0.70761551    3.1536018   0.47221589 
  111600   -7.6075505   0.67291067    3.0908206   0.44905617 
  111800    -7.625808   0.68866345    2.9659306   0.45956853 
  112000   -7.5956049   0.70312645    3.2216318   0.46922019 
  112200   -7.6089183   0.73295235    3.1745976   0.48912403 
  112400   -7.6071903   0.71535986    3.1547345   0.47738396 
  112600   -7.6172676   0.70412201    3.1493867   0.46988456 
  112800   -7.6280699   0.70992055    3.0729669   0.47375412 
  113000   -7.6083735   0.69791678    3.1662776    0.4657436 
  113200   -7.5951721   0.74636078    3.2667873   0.49807192 
  113400   -7.5844525   0.73684698    3.3069317   0.49172304 
  113600   -7.5955626   0.70281446    3.3079911   0.46901198 
  113800   -7.6226196     0.706939    3.1003136   0.47176443 
  114000   -7.6327867    0.7150977    3.0921354   0.47720901 
  114200    -7.596425   0.69853665     3.270707   0.46615726 
  114400   -7.5832552   0.72436092    3.3169567   0.48339067 
  114600     -7.59807   0.73735198    3.2960713   0.49206005 
  114800   -7.6095628   0.69965528    3.1844042   0.46690376 
  115000   -7.6360224   0.71776502    3.0307746     0.478989 
  115200   -7.6051463   0.69271442    3.1247494   0.46227188 
  115400   -7.6112361   0.71544286    3.1477001   0.47743934 
  115600   -7.5885465   0.72173153    3.3208586   0.48163599 
  115800   -7.5697951   0.71177819    3.3014088   0.47499379 
  116000    -7.600258   0.69620482    3.1673481   0.46460115 
  116200   -7.6301925   0.69967526    3.0284474   0.46691709 
  116400   -7.6166336   0.69805503    3.0156215   0.46583585 
  116600   -7.6129727   0.72317123    3.1980753   0.48259675 
  116800   -7.5543662   0.68292969    3.5412626    0.4557422 
  117000   -7.6049883   0.71190507    3.2553972   0.47507846 
  117200   -7.6338489   0.69459729    3.0142552   0.46352839 
  117400   -7.6331829   0.70571334    3.0298538    0.4709465 
  117600    -7.619259   0.72240201    3.1437234   0.48208342 
  117800   -7.5879628   0.70771813    3.2932816   0.47228437 
  118000   -7.6136597   0.72286088    3.1192374   0.48238964 
  118200   -7.6144882   0.66829891     3.105427   0.44597859 
  118400   -7.6188223   0.66606124     3.048984   0.44448531 
  118600   -7.6142624   0.69309107    3.1060787   0.46252324 
  118800   -7.5924867   0.69842322     3.255548   0.46608156 
  119000   -7.6046236   0.71573165    3.0974699   0.47763207 
  119200   -7.6231223   0.72495705    3.0800918   0.48378849 
  119400   -7.6107845   0.66743021    3.1569951   0.44539887 
  119600   -7.6231522   0.67318424    3.0083905   0.44923873 
  119800   -7.6280126   0.71013197    3.0485178   0.47389521 
  120000   -7.6054231   0.70992464    3.1848766   0.47375685 
  120200   -7.5791055   0.68587936    3.3427379   0.45771062 
  120400   -7.6261942    0.7277292    3.0643417   0.48563844 
  120600   -7.6134017   0.69411554    3.1143552    0.4632069 
  120800    -7.629503   0.67228386    3.0049187   0.44863788 
  121000    -7.623078   0.67145033    3.0448201   0.44808164 
  121200   -7.6267281   0.71846699    3.1148494   0.47945745 
  121400   -7.5918986   0.69277043     3.277516   0.46230926 
  121600   -7.6002618   0.70460033     3.211512   0.47020376 
  121800   -7.6208945     0.721029    3.1201757   0.48116717 
  122000   -7.6375915   0.71130708    2.9643904    0.4746794 
  122200   -7.6256479   0.67156707    2.9726924   0.44815954 
  122400   -7.6244985   0.68540558    3.0164122   0.45739445 
  122600   -7.5970336   0.70509105    3.1654323   0.47053123 
  122800   -7.5872092   0.69688167    3.3759337   0.46505284 
  123000   -7.6186664   0.71253439    3.0755254   0.47549842 
  123200   -7.6438628      0.71449    2.9566814   0.47680347 
  123400    -7.628912   0.67799614    3.0134989   0.45244988 
  123600   -7.6148917   0.68226407    3.0553746   0.45529801 
  123800   -7.6057505   0.71822917    3.1199817   0.47929874 
  124000   -7.6001203   0.71737382    3.1692242   0.47872794 
  124200   -7.6345191   0.72851258      3.07208   0.48616121 
  124400   -7.6345196   0.69426244    3.0467431   0.46330493 
  124600   -7.6090694   0.66686176    3.1170348   0.44501952 
  124800   -7.6138108   0.68685734    3.1413122   0.45836325 
  125000   -7.6173806   0.70630244    3.1910294   0.47133963 
  125200    -7.591063   0.69176809    3.2188153   0.46164037 
  125400   -7.6220053   0.73527801    3.1620964   0.49067602 
  125600   -7.5848207    0.7028869    3.2777067   0.46906033 
  125800   -7.6081794   0.70399436     3.109303   0.46979937 
  126000   -7.6081163   0.67818371    3.1258517   0.45257505 
  126200   -7.6304622   0.70336621    2.9498555   0.46938019 
  126400   -7.5800721   0.69565677    3.3752428   0.46423542 
  126600   -7.5908294   0.72186479    3.3419056   0.48172492 
  126800    -7.601931   0.71297496    3.2455517   0.47579243 
  127000   -7.6150531   0.70516684    3.1212536   0.47058181 
  127200   -7.6150708   0.69655199    3.1203038   0.46483283 
  127400    -7.593639   0.68278615    3.1768576   0.45564642 
  127600   -7.6119728   0.71145961    3.1621894   0.47478119 
  127800   -7.6107705   0.70933659    3.1747765   0.47336443 
  128000   -7.6096347   0.69440603    3.1953384   0.46340076 
  128200   -7.6363778   0.70374026    3.0327463    0.4696298 
  128400   -7.6436555   0.69099627    2.9663996    0.4611253 
  128600   -7.6463471   0.68873525     2.925542   0.45961645 
  128800   -7.6138137   0.69938469    3.2207189   0.46672318 
  129000   -7.5923671   0.70142389    3.1859478   0.46808401 
  129200   -7.6017877   0.71122823    3.2596113   0.47462678 
  129400    -7.618444   0.70290223    3.0924326   0.46907056 
  129600   -7.6321336   0.68232578    2.9904114   0.45533919 
  129800   -7.6278553   0.68505413       3.0039   0.45715991 
  130000   -7.5850508   0.69904973    3.3085977   0.46649965 
  130200   -7.6074785   0.72505575     3.224177   0.48385436 
  130400   -7.6021287   0.70798343    3.2121818   0.47246142 
  130600   -7.6184082   0.70158212    3.0370935   0.46818961 
  130800   -7.6127258   0.68733462    3.1479169   0.45868176 
  131000   -7.5818741   0.69591699    3.3319561   0.46440907 
  131200   -7.5719868   0.71117928    3.4433436   0.47459411 
  131400   -7.5978236   0.71558777    3.2488068   0.47753605 
  131600    -7.607345   0.69959519    3.2234411   0.46686365 
  131800   -7.5989766   0.69187801     3.124796   0.46171372 
  132000   -7.6294646   0.73095321    3.0560897   0.48778993 
  132200   -7.6092141   0.71455989    3.1278987   0.47685011 
  132400   -7.5905455    0.6960228    3.2626493   0.46447968 
  132600   -7.6198744    0.7227587    3.1247231   0.48232146 
  132800   -7.6103535   0.70586851    3.2354106   0.47105005 
  133000   -7.6023343   0.69294019    3.1386524   0.46242255 
  133200   -7.5892323   0.68183728     3.186802    0.4550132 
  133400   -7.5941549   0.71145224    3.3668021   0.47477627 
  133600   -7.5913497    0.7268484     3.180399   0.48505065 
  133800   -7.5716795   0.69555586    3.3419533   0.46416808 
  134000   -7.5886804    0.6667772    3.2614172    0.4449631 
  134200   -7.6079575   0.67798176    3.1320081   0.45244028 
  134400   -7.6215268   0.71249155    3.1051752   0.47546984 
  134600   -7.5992531   0.70998463    3.1920004   0.47379688 
  134800    -7.594976   0.70820161    3.2347835   0.47260701 
  135000   -7.6362982   0.74610839    3.0262156    0.4979035 
  135200   -7.5931758   0.69499118    3.3047793   0.46379124 
  135400   -7.6350518   0.71192712    3.1117549   0.47509317 
  135600   -7.6211751    0.6541214    3.1843393   0.43651745 
  135800   -7.6119562   0.65825474    3.1144132   0.43927577 
  136000   -7.6258407    0.7026976    3.0672239     0.468934 
  136200   -7.6293708   0.72322537    3.1100096   0.48263288 
  136400   -7.6255246   0.73594093    3.1160753    0.4911184 
  136600   -7.5938525    0.7210414    3.2099246   0.48117544 
  136800   -7.5783506   0.72392978    3.4052145   0.48310295 
  137000   -7.5753568   0.71967313    3.3642273   0.48026235 
  137200   -7.5944842   0.69559458    3.2001205   0.46419392 
  137400   -7.5979957   0.67888118    3.2781064    0.4530405 
  137600   -7.6150912   0.70147711    3.1734244   0.46811952 
  137800   -7.6228201   0.74106647    3.1525413   0.49453885 
  138000   -7.5765976   0.72960611    3.4631807   0.48689096 
  138200   -7.6050741   0.73267189    3.1633621   0.48893686 
  138400   -7.5924827    0.6931538    3.1796699    0.4625651 
  138600   -7.6001564   0.69780327    3.2776846   0.46566785 
  138800   -7.5804886   0.67873226    3.3667851   0.45294112 
  139000   -7.6133848   0.71530236    3.2177324   0.47734559 
  139200   -7.5927655   0.70247733    3.1671581   0.46878701 
  139400   -7.5992005   0.71208204    3.2033253   0.47519656 
  139600   -7.6286841   0.72390876    3.0418271   0.48308893 
  139800   -7.6125158   0.68166869    3.1331664   0.45490069 
  140000   -7.6223816   0.68118045    3.0706056   0.45457487 
  140200   -7.6291966   0.72508009    3.0628775    0.4838706 
  140400   -7.5718665   0.70035115    3.3955563   0.46736814 
  140600   -7.6216221   0.74277418    3.1551134   0.49567846 
  140800   -7.6120919   0.70268038    3.0827122   0.46892251 
  141000   -7.6234894   0.69480144     3.024912   0.46366462 
  141200   -7.6062312   0.68080751    3.1631074     0.454326 
  141400   -7.6270039   0.71103617    3.0476805   0.47449861 
  141600   -7.6365938   0.73120014    3.0130224   0.48795472 
  141800   -7.6107285   0.71094809    3.2445031   0.47443983 
  142000   -7.6209761   0.72345976    3.0961554    0.4827893 
  142200   -7.6103683   0.69931007    3.0172004   0.46667339 
  142400   -7.6145439   0.67882188    3.0673512   0.45300092 
  142600   -7.6438971   0.70644005    2.9713259   0.47143146 
  142800   -7.6161717   0.71530339    3.1590781   0.47734627 
  143000   -7.5826562   0.70624067    3.3125258   0.47129841 
  143200   -7.6126723   0.72347289    3.1997877   0.48279806 
  143400   -7.6284202   0.72025501    3.0221026   0.48065066 
  143600   -7.6366057   0.72092545    3.0056879   0.48109807 
  143800   -7.6184552     0.705552    3.0279967   0.47083884 
  144000   -7.6379666   0.73354587    2.9305403    0.4895201 
  144200   -7.6036065    0.7146829       3.2481    0.4769322 
  144400   -7.6204633    0.7505198    3.1356408   0.50084738 
  144600   -7.5885617   0.70288157    3.3190761   0.46905677 
  144800   -7.6219326   0.69661069    3.0464271     0.464872 
  145000   -7.6303239   0.69308472    2.9945912     0.462519 
  145200   -7.5948227   0.66938827    3.1937301   0.44670555 
  145400    -7.613556   0.72385545    3.2084891   0.48305335 
  145600    -7.612789   0.74069108    3.1495303   0.49428834 
  145800   -7.6257326   0.70157454    3.0773783   0.46818454 
  146000   -7.6402348   0.68861951    3.0529179   0.45953921 
  146200   -7.6032796   0.67935235    3.1745924   0.45335492 
  146400   -7.6195354   0.73214056    3.0594164   0.48858229 
  146600    -7.591045   0.70778531    3.2448264    0.4723292 
  146800   -7.6084816   0.70639318    3.1950994   0.47140018 
  147000   -7.6238455   0.68541872    2.9675165   0.45740322 
  147200   -7.6110671   0.65496177     3.138567   0.43707826 
  147400   -7.6080093   0.68663544    3.2378008   0.45821518 
  147600   -7.6093062   0.71132412    3.1720735   0.47469077 
  147800   -7.6100517   0.70571464    3.1843344   0.47094737 
  148000   -7.6222722   0.70927455    3.0393209   0.47332302 
  148200    -7.628198   0.70384322    3.0407331   0.46969851 
  148400   -7.6391487    0.7092165    2.9657905   0.47328428 
  148600   -7.6037224   0.69342416     3.170639   0.46274552 
  148800   -7.5907573     0.715045    3.1848508   0.47717384 
  149000   -7.6011343   0.73011154    3.2051286   0.48722825 
  149200   -7.6073444   0.70126782    3.1467056   0.46797986 
  149400   -7.6164339   0.67822677    3.0528048   0.45260378 
  149600   -7.6225127   0.69049239    3.0975737   0.46078905 
  149800   -7.6264532   0.72102356    3.0504194   0.48116354 
  150000   -7.5822515   0.69656111    3.3051914   0.46483891 
  150200   -7.6095082    0.7205444    3.1880829   0.48084377 
  150400   -7.6081128   0.66092346    3.0466884    0.4410567 
  150600   -7.6308408    0.6821324    3.0064942   0.45521014 
  150800   -7.5934635   0.67635092    3.2279785   0.45135196 
  151000   -7.6025045   0.71007151     3.193193   0.47385486 
  151200   -7.6065371   0.71765457    3.2602904   0.47891529 
  151400   -7.6168861   0.70439767    3.0739211   0.47006851 
  151600   -7.6443635   0.68313186    2.8799179   0.45587712 
  151800   -7.6385659   0.67581991    2.9467132    0.4509976 
  152000   -7.6165421   0.67484396    3.1446818   0.45034632 
  152200   -7.6231329   0.71056732    3.0938645   0.47418573 
  152400   -7.6336244   0.73824987    2.9993362   0.49265924 
  152600   -7.6021987   0.70005567    3.1267918   0.46717095 
  152800   -7.6519803   0.70911891    2.8430994   0.47321916 
  153000   -7.6242408   0.65797349    3.0591541   0.43908808 
  153200   -7.6098171   0.66649347    3.1169755   0.44477376 
  153400   -7.6041879   0.68434056    3.2079776   0.45668372 
  153600   -7.6444161   0.73598042    2.8900665   0.49114476 
  153800   -7.6173647   0.71442561    3.0420512    0.4767605 
  154000   -7.6139995   0.69985387    3.1214174   0.46703628 
  154200   -7.6124264   0.67428517    3.1342386   0.44997342 
  154400   -7.6309512   0.68379584    2.9723139   0.45632021 
  154600    -7.599664   0.68443293    3.1507617   0.45674536 
  154800   -7.6017668   0.71948745    3.2116328   0.48013844 
  155000   -7.6030213   0.71689214    3.2346663    0.4784065 
  155200   -7.6057392   0.69886138    3.1623954   0.46637396 
  155400   -7.6339741   0.69702468    3.0181044   0.46514827 
  155600   -7.6513358   0.67792879    2.8465479   0.45240493 
  155800   -7.6555851   0.67705294    2.7936339   0.45182045 
  156000   -7.6299777   0.70829503    3.0230642   0.47266936 
  156200   -7.6031256   0.70756781    3.0956829   0.47218406 
  156400   -7.5912647   0.70596833    3.3534697   0.47111667 
  156600   -7.6113339   0.71464997    3.2053125   0.47691022 
  156800   -7.6059511   0.67406984    3.1459988   0.44982972 
  157000   -7.6334061   0.69715328    3.0609203   0.46523409 
  157200   -7.6032385   0.70990573    3.2022778   0.47374423 
  157400   -7.6019587   0.73117188    3.2163415   0.48793585 
  157600   -7.5970075   0.70918389    3.2503617   0.47326252 
  157800   -7.6169511   0.69911815    3.1045639   0.46654531 
  158000   -7.6345638   0.70216815    3.0261913   0.46858068 
  158200   -7.6375373   0.71937236    2.9677888   0.48006163 
  158400    -7.621137   0.75820675    3.1186971   0.50597714 
  158600   -7.6019541   0.73346528    3.1929793   0.48946632 
  158800   -7.5955751   0.69533472    3.2671302    0.4640205 
  159000   -7.6115833   0.69305056    3.1943763    0.4624962 
  159200   -7.6021767   0.68433092    3.2357733   0.45667729 
  159400   -7.5888689    0.7000329    3.2960257   0.46715575 
  159600   -7.5932613   0.74147397    3.3405727   0.49481079 
  159800   -7.5703134   0.69704747    3.3264046   0.46516348 
  160000   -7.6056585   0.70932533    3.2364585   0.47335691 
  160200   -7.6112141   0.70616698    3.1096008   0.47124924 
  160400    -7.600539   0.69725683    3.2260358   0.46530319 
  160600   -7.5956935   0.71304522    3.3132887   0.47583932 
  160800   -7.5768615   0.73932956    3.4751064   0.49337975 
  161000   -7.5613379   0.70930532    3.4272521   0.47334356 
  161200   -7.5812864   0.69012262    3.3065503   0.46054229 
  161400   -7.6198862    0.7166597    3.0158022   0.47825138 
  161600   -7.6146306   0.69752161    3.1403705   0.46547988 
  161800   -7.6230171   0.69715659    3.0488039    0.4652363 
  162000   -7.5753079   0.66756642    3.3105335   0.44548977 
  162200   -7.5779221   0.70987708     3.307629   0.47372511 
  162400   -7.5984798   0.73064063    3.3086303   0.48758134 
  162600   -7.6104575   0.70793402    3.1605796   0.47242844 
  162800   -7.6239871   0.70415568    3.0324381   0.46990703 
  163000   -7.6163514   0.70270686    3.0957106   0.46894018 
  163200   -7.6057205   0.70375745     3.242771   0.46964127 
  163400   -7.6042029   0.72155399    3.2560554   0.48151751 
  163600   -7.6087422   0.75852197    3.2940113    0.5061875 
  163800   -7.5827698   0.74078219    3.3628453   0.49434914 
  164000   -7.6040432   0.70969031    3.2008552   0.47360048 
  164200   -7.6260187   0.71154042    3.1379212   0.47483512 
  164400   -7.6209431   0.70074652    3.1286043   0.46763198 
  164600   -7.6156449   0.70550832     3.140757   0.47080969 
  164800   -7.6289307   0.75235391    3.0847428   0.50207135 
  165000   -7.6131482    0.7492844    3.2003281   0.50002296 
  165200   -7.6184055   0.70873515    3.1262688   0.47296306 
  165400   -7.6064631   0.67486158    3.1594307   0.45035808 
  165600   -7.6433757   0.72546814    2.9548829   0.48412955 
  165800   -7.5941019   0.70278136    3.2837242    0.4689899 
  166000   -7.6133503   0.73438679    3.1846949   0.49008127 
  166200   -7.6087845   0.68810082    3.1468301   0.45919307 
  166400   -7.6259473   0.67896426    3.0642083   0.45309594 
  166600   -7.6198974   0.69420622    3.1863138   0.46326741 
  166800   -7.5978055   0.70394233    3.2241185   0.46976465 
  167000   -7.6043709   0.72076168    3.2356233   0.48098878 
  167200   -7.6195282   0.72375273    3.1338761    0.4829848 
  167400   -7.6110371   0.69619041    3.1527312   0.46459153 
  167600   -7.6285049      0.66663    3.0531617   0.44486486 
  167800   -7.6556938   0.67531648    2.8575741   0.45066165 
  168000   -7.6335447    0.6911068    2.9169494   0.46119907 
  168200   -7.6118548   0.69803239    3.1925551   0.46582075 
  168400   -7.5797493   0.68806153    3.2442157   0.45916686 
  168600   -7.5966726    0.7125976    3.3617725   0.47554061 
  168800   -7.6171008    0.7126434    3.0611754   0.47557117 
  169000   -7.6215262   0.67486147    3.1610732     0.450358 
  169200   -7.6293887   0.68265238     3.018765   0.45555714 
  169400   -7.6176233   0.70013238      3.13719   0.46722214 
  169600    -7.607371   0.70494284    3.1723526   0.47043233 
  169800   -7.6386773   0.74080265    2.9972827    0.4943628 
  170000   -7.6037865   0.70687202    3.1890706   0.47171973 
  170200    -7.610292   0.72642737    3.1629791   0.48476968 
  170400   -7.6095332   0.73556611    3.2200275   0.49086827 
  170600   -7.5872265   0.69558151    3.2756781    0.4641852 
  170800   -7.6184862   0.69339985    3.1274031    0.4627293 
  171000   -7.6126908   0.67519899     3.221826   0.45058324 
  171200   -7.5992002   0.69090858    3.2481241   0.46106679 
  171400   -7.6150632   0.74957399    3.2258459   0.50021621 
  171600   -7.6113819   0.73099599    3.1470294   0.48781848 
  171800   -7.6074736    0.7009131    3.2212064   0.46774314 
  172000   -7.6133406   0.69982663    3.1194708    0.4670181 
  172200   -7.5798126   0.69056111    3.2261282   0.46083491 
  172400   -7.5676315   0.72324041    3.4476196   0.48264292 
  172600   -7.5866556   0.72556031    3.3052976   0.48419107 
  172800   -7.6111824   0.71918889    3.1312653    0.4799392 
  173000   -7.5934797   0.68660779    3.2578045   0.45819672 
  173200   -7.5792732   0.66794853    3.2830262   0.44574477 
  173400   -7.6436151   0.73489477    2.9938668   0.49042027 
  173600   -7.5972561   0.70976742     3.222629   0.47365193 
  173800    -7.586402   0.71912138    3.3776624   0.47989415 
  174000   -7.6003714   0.71155944    3.2026862   0.47484781 
  174200   -7.6276344   0.70330752    3.1204058   0.46934102 
  174400   -7.6156183   0.68603264    3.1408796   0.45781291 
  174600   -7.6334677    0.7170459    3.0382911   0.47850911 
  174800   -7.5846283   0.67925593    3.3403356   0.45329058 
  175000   -7.5924226   0.69386565    3.3023498   0.46304014 
  175200   -7.6323785   0.73441557    3.0631071   0.49010048 
  175400   -7.6044458   0.70271249     3.184976   0.46894394 
  175600    -7.589832   0.69125236    3.2910129    0.4612962 
  175800   -7.5920232   0.70610416    3.2292586   0.47120732 
  176000   -7.6027475    0.7317635    3.2815434   0.48833067 
  176200   -7.5943081   0.70973688    3.2786223   0.47363155 
  176400   -7.6040424   0.68425773    3.1518193   0.45662845 
  176600   -7.6093842   0.68333458    3.1294275    0.4560124 
  176800   -7.5915901   0.69452456    3.2367493   0.46347985 
  177000   -7.5381199   0.68021865    3.6051927   0.45393303 
  177200   -7.5613643   0.69099969     3.421725   0.46112759 
  177400   -7.6098212   0.71139344    3.1989673   0.47473703 
  177600   -7.6096828   0.69269784    3.1897708   0.46226082 
  177800   -7.6042026    0.6877433     3.152006   0.45895449 
  178000   -7.6041917   0.73293242    3.1835807   0.48911073 
  178200   -7.5575261   0.70862281    3.4386811   0.47288809 
  178400   -7.5953253   0.71930869    3.2095908   0.48001915 
  178600   -7.6055728   0.70037452    3.1822943   0.46738373 
  178800   -7.6143437   0.70286868    3.1468675   0.46904817 
  179000   -7.6076476   0.70095859    3.1933353    0.4677735 
  179200   -7.5939558   0.70407178    3.3087151   0.46985104 
  179400   -7.5943739    0.7297092    3.2090009   0.48695976 
  179600   -7.6158924   0.73695188    3.0882685   0.49179305 
  179800   -7.6203947   0.69966128    3.0959318   0.46690776 
  180000   -7.6427969   0.71769786    3.0125556   0.47894418 
  180200   -7.6068706    0.6964021    3.1840625    0.4647328 
  180400   -7.5925941   0.70730297    3.2124293   0.47200732 
  180600   -7.6070432   0.75356597     3.209718   0.50288019 
  180800   -7.5718826   0.75780442    3.4638152   0.50570865 
  181000   -7.5845711   0.73214373    3.3238877   0.48858441 
  181200   -7.6036789   0.71965041    3.2537466   0.48024719 
  181400   -7.6156585   0.70577161    3.0694595   0.47098539 
  181600   -7.6198319   0.69539779     3.066144   0.46406259 
  181800    -7.617921    0.7121077     3.067247   0.47521368 
  182000    -7.560156   0.69884244    3.5491773   0.46636132 
  182200   -7.5862652   0.72335881    3.2791023   0.48272193 
  182400   -7.5894257   0.70395696    3.2984853   0.46977441 
  182600   -7.6129525   0.71009465    3.1145092    0.4738703 
  182800   -7.5674319   0.65861636     3.396781   0.43951709 
  183000   -7.5665751   0.67720071     3.333488   0.45191906 
  183200   -7.5552202   0.71929751    3.4822023   0.48001168 
  183400    -7.590839   0.75134691    3.3227715   0.50139934 
  183600   -7.5732483   0.70450987    3.3808648   0.47014339 
  183800   -7.5679593   0.67597822    3.4056836   0.45110325 
  184000   -7.6295439   0.71917091    3.1041726    0.4799272 
  184200   -7.6050925   0.67929473    3.2649024   0.45331647 
  184400   -7.6384306   0.71425722    2.9859745   0.47664813 
  184600   -7.5913182   0.70492908    3.3740187   0.47042314 
  184800   -7.6109709   0.74680574    3.2373806   0.49836886 
  185000   -7.5956083   0.71267557    3.3688093   0.47559264 
  185200   -7.6004636   0.67941717    3.3111833   0.45339818 
  185400   -7.6152937   0.68787086     3.220286   0.45903961 
  185600   -7.6057195   0.69016755    3.2210571   0.46057227 
  185800   -7.6282036   0.73031652     3.055338   0.48736505 
  186000   -7.6107471   0.71806756    3.0876922    0.4791909 
  186200   -7.6070615   0.70058459    3.1793196   0.46752392 
  186400   -7.6555931   0.70066428    2.8465578    0.4675771 
  186600   -7.6393645   0.66350573    2.9461843   0.44277993 
  186800   -7.6065833   0.66659632    3.1368132   0.44484239 
  187000    -7.640966   0.73069317    3.0907445   0.48761639 
  187200   -7.6305412   0.73924478    3.0678391   0.49332318 
  187400   -7.6098745   0.72278706    3.1467969   0.48234038 
  187600   -7.6004155   0.69286991    3.1830192   0.46237565 
  187800   -7.6370967   0.69148261    2.9590125   0.46144986 
  188000   -7.6033078   0.66395436    3.1987194   0.44307932 
  188200    -7.602012   0.70143032    3.2074315    0.4680883 
  188400   -7.6029912    0.7105671    3.2445427   0.47418559 
  188600   -7.6318604   0.73485046     3.028535    0.4903907 
  188800   -7.6182988   0.70694383     3.085505   0.47176765 
  189000   -7.6204805   0.68100945    3.1262848   0.45446076 
  189200   -7.6306933   0.67576112    3.0213431   0.45095837 
  189400   -7.6163383   0.70203597    3.1054595   0.46849248 
  189600   -7.5940398   0.71185385    3.1838262   0.47504428 
  189800   -7.5883514   0.70789036    3.3200288   0.47239931 
  190000   -7.5939549   0.69685286    3.1804089    0.4650336 
  190200   -7.6241193   0.69148827    3.0992178   0.46145363 
  190400    -7.601676   0.65695437    3.2166622   0.43840799 
  190600   -7.5950352   0.69823091    3.3242465   0.46595323 
  190800   -7.5711129    0.7005067    3.4173565   0.46747194 
  191000   -7.5746344   0.69752486    3.3359301   0.46548205 
  191200    -7.612348   0.70386892    3.1676733   0.46971566 
  191400   -7.6175769   0.69547264    3.0775342   0.46411254 
  191600   -7.5823261   0.68954679    3.3224799   0.46015802 
  191800   -7.5990192   0.74314247    3.2271231   0.49592424 
  192000    -7.591418   0.72110472    3.2456811    0.4812177 
  192200   -7.5969747   0.69832112    3.1864517   0.46601343 
  192400   -7.6134079   0.69489565    3.1891218   0.46372749 
  192600   -7.6085511    0.6860504    3.1244474   0.45782476 
  192800   -7.6118888   0.71563424     3.079945   0.47756706 
  193000   -7.5631745     0.713994    3.4554959   0.47647247 
  193200   -7.5997073   0.73201013    3.3122124   0.48849525 
  193400   -7.6118856    0.7096809    3.1316371   0.47359419 
  193600   -7.6070718   0.69101899    3.2452554   0.46114047 
  193800   -7.6176434   0.70062154    3.0806103   0.46754858 
  194000   -7.5985699   0.70621626    3.2208342   0.47128212 
  194200   -7.5705157   0.72319607    3.4992787   0.48261333 
  194400   -7.5893483   0.73037382    3.2973978   0.48740328 
  194600   -7.5972662   0.70334372    3.2573102   0.46936518 
  194800   -7.5888394   0.67800132     3.229196   0.45245334 
  195000   -7.6095005   0.69262039    3.0871079   0.46220914 
  195200   -7.6116638   0.70366977    3.1729307   0.46958276 
  195400   -7.5789748   0.71225185    3.3998683   0.47530988 
  195600   -7.5977396     0.739592    3.2330474   0.49355489 
  195800   -7.6011812   0.70937653    3.2487526   0.47339108 
  196000   -7.5997279   0.68798111    3.2879652   0.45911319 
  196200   -7.6279917   0.71522058    3.0728148   0.47729101 
  196400   -7.5949883    0.6939986    3.2604979   0.46312886 
  196600   -7.5624213   0.69642887    3.3399518   0.46475066 
  196800   -7.5801977   0.73462553    3.3997817   0.49024059 
  197000   -7.6097716   0.71735447     3.208596   0.47871503 
  197200   -7.6231005    0.7016547    3.1224519   0.46823804 
  197400   -7.6159758   0.69927041    3.1118765   0.46664692 
  197600   -7.6051175   0.70864652    3.2551272   0.47290392 
  197800   -7.5887368   0.71910406    3.2476983   0.47988259 
  198000   -7.5879661   0.71404725    3.2932846   0.47650801 
  198200   -7.6196334   0.69144612    3.1297641   0.46142551 
  198400   -7.6185709    0.6832589    3.1097893    0.4559619 
  198600   -7.5951562   0.68551803     3.181556   0.45746949 
  198800   -7.6141706   0.73030314    3.2083048   0.48735612 
  199000   -7.5838831   0.70164166    3.3513984   0.46822934 
  199200   -7.5968365   0.67051843    3.2402105   0.44745975 
  199400   -7.6342568   0.68013641    3.0040968   0.45387815 
  199600   -7.6193143   0.69069803    3.1259891   0.46092628 
  199800   -7.5746758   0.67914147    3.2688834   0.45321419 
  200000   -7.5897469   0.70393765     3.317095   0.46976153 
Loop time of 92.6802 on 4 procs for 200000 steps with 1000 atoms

Performance: 932238.205 tau/day, 2157.959 timesteps/s
93.5% CPU use with 4 MPI tasks x no OpenMP threads

MPI task timing breakdown:
Section |  min time  |  avg time  |  max time  |%varavg| %total
---------------------------------------------------------------
Pair    | 57.483     | 59.302     | 60.951     |  17.0 | 63.99
Neigh   | 12.554     | 12.929     | 13.124     |   6.2 | 13.95
Comm    | 14.301     | 16.165     | 18.396     |  38.5 | 17.44
Output  | 0.50746    | 0.51301    | 0.52949    |   1.3 |  0.55
Modify  | 2.1814     | 2.2411     | 2.3086     |   3.8 |  2.42
Other   |            | 1.531      |            |       |  1.65

Nlocal:    250 ave 257 max 244 min
Histogram: 1 0 0 1 0 1 0 0 0 1
Nghost:    1655 ave 1661 max 1651 min
Histogram: 1 0 1 0 1 0 0 0 0 1
Neighs:    13773.8 ave 14065 max 13229 min
Histogram: 1 0 0 0 0 0 0 1 1 1

Total # of neighbors = 55095
Ave neighs/atom = 55.095
Neighbor list builds = 17148
Dangerous builds = 1819
System init for write_data ...
Total wall time: 0:01:32
