ITEM: TIMESTEP
0
ITEM: NUMBER OF ATOMS
1000
ITEM: BOX BOUNDS pp pp pp
-4.7050000000000001e+00 4.7050000000000001e+00
-4.7050000000000001e+00 4.7050000000000001e+00
-4.7050000000000001e+00 4.7050000000000001e+00
ITEM: ATOMS id type x y z 
513 1 -4.12285 -4.06386 -3.40815 
187 1 -3.4763 -3.25842 -3.90643 
122 1 -4.22043 -4.60038 -4.37151 
694 1 -4.23722 -3.65219 -4.63482 
338 1 -3.13241 -4.27158 -3.93131 
542 1 -2.31662 -4.36 -3.36579 
817 2 -3.10117 -3.68401 -3.31476 
367 1 -1.75132 -4.13131 -4.36505 
376 1 -2.41018 -3.37974 -3.86973 
134 1 -2.54493 -4.60753 -4.68069 
873 2 -1.4488 -4.38538 -3.45997 
483 1 -0.690693 -4.31227 -3.8416 
923 2 -0.98366 -3.18 -4.05577 
759 1 -0.169608 -3.20955 -4.00436 
406 1 -1.42827 -3.55144 -3.41432 
149 1 0.016853 -4.30803 -3.15948 
383 1 1.35249 -3.85806 -3.24075 
164 1 0.857025 -3.54555 -4.15816 
93 1 0.439871 -3.44896 -3.15138 
836 2 0.187131 -4.03029 -4.13869 
320 1 0.892042 -4.57281 -3.80938 
619 1 2.20672 -3.41808 -3.54462 
834 2 2.6073 -4.07741 -3.43205 
429 1 1.79749 -4.13218 -4.21164 
222 1 1.99849 -3.19222 -4.6604 
596 1 1.92576 -4.67424 -3.33801 
966 2 3.3598 -4.47467 -4.69601 
692 1 3.23184 -3.84174 -3.89535 
881 2 4.01954 -4.38862 -3.35515 
797 1 4.32046 -3.98136 -4.25404 
749 1 4.01237 -3.5112 -3.4029 
53 1 -4.56351 -3.11409 -3.80771 
23 1 -3.78474 -1.98692 -3.41232 
982 2 -3.95957 -2.81546 -3.27213 
839 2 -4.14696 -2.80568 -4.53445 
588 1 -3.37549 -2.37452 -4.34818 
891 2 -2.47971 -2.60176 -4.1214 
348 1 -1.79011 -1.59772 -3.36726 
445 1 -2.73619 -1.85218 -3.77575 
534 1 -1.90065 -2.64242 -3.42126 
447 1 -1.57735 -2.74855 -4.39758 
892 2 -1.21313 -2.26093 -3.65726 
128 1 -0.708308 -2.82198 -3.21977 
381 1 -1.39046 -1.65229 -4.3988 
481 1 -0.569228 -1.65705 -3.46211 
316 1 -0.612729 -2.25471 -4.27747 
489 1 1.27246 -2.8134 -3.45082 
115 1 0.432813 -1.80296 -4.01467 
415 1 1.41132 -2.18673 -4.33798 
962 2 0.433805 -2.64769 -3.74233 
882 2 1.06256 -1.96598 -3.27793 
517 1 3.00363 -1.93159 -4.39776 
82 1 2.88739 -2.88332 -4.1897 
313 1 2.20161 -2.31617 -3.6547 
944 2 2.22873 -2.35338 -4.47315 
366 1 3.15704 -3.01657 -3.26626 
579 1 4.67243 -2.10655 -4.22165 
295 1 3.88965 -2.75953 -4.02486 
451 1 3.30031 -2.03408 -3.33796 
225 1 -3.30589 -0.104624 -3.80923 
186 1 -3.97599 -1.37421 -4.28204 
420 1 -4.35753 -0.323245 -4.04026 
71 1 -4.56224 -1.26883 -3.51381 
297 1 -3.49889 -1.07584 -3.54327 
904 2 -2.60631 -1.01167 -3.70984 
36 1 -2.55049 -0.362701 -3.20015 
215 1 -1.94496 -0.766741 -4.11589 
675 1 -2.81231 -0.98264 -4.60987 
933 2 -2.81243 -0.209363 -4.42495 
229 1 -1.10005 -0.656262 -3.40433 
823 2 -0.523727 -1.38455 -4.31891 
906 2 -0.217877 -0.862313 -3.38249 
553 1 -1.06021 -0.511619 -4.47989 
569 1 -0.143519 -0.695595 -4.18236 
43 1 0.864818 -0.955074 -4.49969 
52 1 0.705094 -0.424857 -3.67239 
306 1 1.50724 -1.23554 -3.63337 
159 1 1.46977 -0.091359 -4.53738 
838 2 0.467984 -0.096933 -4.40148 
878 2 2.08913 -0.673468 -4.34372 
112 1 2.69794 -1.22213 -3.73589 
590 1 2.096 -1.52925 -4.47747 
654 1 2.04136 -0.309917 -3.6509 
562 1 3.08394 -0.880003 -4.56067 
425 1 3.02749 -0.280841 -3.2456 
869 2 3.01125 -0.204105 -4.15769 
350 1 3.74125 -1.06835 -3.63846 
782 1 4.02135 -0.244492 -4.23588 
531 1 4.14878 -1.16707 -4.54722 
148 1 -3.33337 -4.43008 -2.82012 
357 1 -3.5507 -3.32659 -2.64472 
446 1 -4.26088 -4.14544 -2.30299 
273 1 -4.52777 -3.1913 -2.68917 
467 1 -2.3983 -3.56891 -2.72315 
910 2 -3.06977 -3.83813 -2.20349 
670 1 -2.47244 -4.58458 -2.37612 
50 1 -2.41614 -3.56295 -1.63404 
943 2 -1.81214 -4.08685 -1.75162 
491 1 -0.621033 -3.58194 -2.34762 
508 1 -1.56094 -4.06407 -2.5615 
460 1 -0.999302 -4.33986 -1.57278 
896 2 0.0171333 -4.10903 -2.294 
443 1 0.336121 -3.32717 -2.14016 
652 1 0.943094 -4.31935 -2.08339 
75 1 1.34344 -3.42668 -2.29271 
807 2 0.80771 -4.55818 -2.92944 
29 1 2.14745 -3.95919 -2.60951 
717 1 2.78081 -4.41132 -1.70876 
972 2 2.18437 -3.33428 -2.0271 
91 1 3.20751 -3.60755 -2.34593 
507 1 4.05794 -3.96704 -2.46864 
272 1 4.65161 -3.6765 -1.66537 
38 1 3.23586 -4.56425 -3.00008 
859 2 -4.06496 -3.00263 -1.98756 
32 1 -3.82989 -2.35057 -2.52894 
998 2 -4.38896 -1.79132 -2.74552 
448 1 -3.34798 -3.01992 -1.57315 
630 1 -2.10261 -2.60449 -1.58448 
897 2 -2.77589 -2.77485 -2.31769 
196 1 -2.9825 -2.55876 -3.12189 
610 1 -2.89743 -2.04285 -1.93775 
216 1 -2.07812 -2.18924 -2.49456 
931 2 -1.84107 -1.81167 -1.77906 
644 1 -1.06211 -2.06397 -2.67984 
133 1 -1.46157 -2.98309 -2.44309 
438 1 -0.264646 -2.4981 -2.06606 
964 2 -0.661474 -1.80143 -1.94868 
7 1 0.270201 -2.46561 -2.92205 
474 1 0.989071 -2.58137 -2.12547 
349 1 0.386173 -1.68339 -1.83049 
952 2 1.90996 -2.45549 -1.8877 
251 1 1.90958 -2.75484 -2.73296 
210 1 2.49692 -1.85897 -2.81543 
457 1 2.88914 -2.64262 -2.27815 
657 1 1.69375 -1.75237 -2.37029 
688 1 4.46853 -2.34605 -3.09031 
237 1 4.50903 -2.26518 -2.11675 
979 2 3.45963 -2.01026 -2.47496 
183 1 3.85306 -2.8638 -2.5636 
55 1 3.2087 -1.69417 -1.73885 
279 1 -4.20265 -0.309114 -2.97888 
184 1 -3.73141 -1.21524 -2.50434 
686 1 -4.6274 -1.28563 -1.82643 
468 1 -3.98965 -0.444158 -1.98657 
519 1 -3.34222 -1.12571 -1.60599 
911 2 -3.32177 -0.406664 -2.89722 
525 1 -1.77312 -0.0579929 -1.71846 
691 1 -1.79342 -0.521967 -2.64875 
119 1 -2.65578 -1.28156 -2.89796 
142 1 -2.137 -0.948762 -1.72732 
613 1 -2.85943 -0.48008 -2.17157 
969 2 -1.84979 -1.37082 -2.60876 
779 1 -1.1677 -1.06322 -2.05344 
875 2 -0.632215 -0.445972 -2.71504 
139 1 -0.27347 -1.12961 -2.45835 
158 1 -0.7877 -0.193145 -1.74536 
820 2 1.27669 -0.537563 -3.01893 
742 1 0.455234 -1.46846 -3.04694 
311 1 0.367048 -0.560903 -1.74992 
6 1 1.07359 -0.937525 -2.37075 
198 1 0.215877 -0.382964 -2.74138 
932 2 1.3952 -1.22243 -1.66988 
727 1 1.81721 -0.556078 -1.82542 
150 1 2.08792 -0.893702 -2.83002 
898 2 2.57174 -1.25724 -2.21606 
130 1 2.74177 -0.280182 -2.2893 
584 1 4.1693 -1.47055 -2.6312 
763 1 4.40359 -0.466376 -2.34231 
937 2 3.80938 -0.953026 -1.98014 
135 1 3.19063 -1.09718 -2.69262 
855 2 4.55505 -0.473847 -1.58147 
428 1 3.66188 -0.169206 -1.74528 
790 1 -4.40074 -4.64905 -1.49508 
62 1 -3.57052 -4.00906 -1.48762 
324 1 -4.15286 -3.36225 -0.895557 
59 1 -3.91601 -4.27233 -0.527147 
901 2 -4.67726 -4.1123 -0.906216 
595 1 -2.50995 -4.52584 -1.2633 
745 1 -2.91192 -3.64646 -0.79533 
945 2 -2.50449 -4.01975 -0.220493 
408 1 -1.66832 -3.96369 -0.716984 
894 2 -2.19443 -3.16817 -0.870999 
153 1 -0.132497 -3.74836 -1.30819 
326 1 -1.24678 -3.28063 -1.4498 
16 1 -0.494904 -3.94411 -0.45095 
895 2 0.711254 -3.71212 -1.52664 
861 2 0.322199 -4.01401 -0.689779 
195 1 1.11675 -3.61381 -0.748711 
98 1 1.24077 -4.67972 -0.878232 
315 1 1.55968 -4.25496 -0.0253304 
700 1 1.8858 -4.03426 -1.55366 
193 1 2.17982 -3.68557 -0.62316 
378 1 2.84533 -3.39491 -1.43805 
816 2 2.46481 -4.377 -0.892773 
739 1 4.66778 -3.87573 -0.0840775 
245 1 3.83395 -4.24687 -1.5052 
146 1 3.15505 -3.86072 -0.59471 
69 1 4.11221 -3.38152 -0.822034 
27 1 4.10901 -4.58012 -0.534532 
256 1 -3.41011 -3.06364 -0.0429606 
294 1 -3.89214 -2.40335 -0.618156 
701 1 -3.95917 -2.05656 -1.55845 
475 1 -4.56784 -2.91179 -0.11162 
560 1 -2.43875 -3.0616 -0.0431653 
432 1 -1.76747 -2.36453 -0.684113 
473 1 -2.77815 -2.5752 -0.862893 
583 1 -2.37723 -1.6344 -1.05084 
422 1 -1.13145 -2.26758 -1.51916 
638 1 -0.919982 -2.92498 -0.581683 
989 2 -0.453395 -2.96073 -1.27364 
86 1 -0.235631 -2.12434 -0.956891 
801 2 -0.931466 -1.96763 -0.48733 
741 1 0.457882 -2.81823 -1.23988 
830 2 1.11977 -2.72197 -0.668638 
786 1 0.153424 -3.11071 -0.398848 
706 1 0.614341 -2.09521 -0.362151 
603 1 1.22027 -2.04589 -1.22844 
841 2 1.38855 -2.22696 -0.0271025 
304 1 1.67503 -3.05998 -0.0932367 
154 1 2.74461 -3.01457 -0.241167 
79 1 1.63955 -2.95504 -1.32169 
5 1 2.04125 -2.17688 -0.480196 
772 1 2.60849 -2.49706 -1.18716 
646 1 2.12614 -1.65384 -1.42344 
250 1 3.70412 -2.80144 -0.101401 
709 1 3.61928 -2.84439 -1.53417 
853 2 4.04413 -1.88203 -1.5455 
192 1 4.60467 -2.46547 -1.05453 
47 1 3.56633 -1.91905 -0.829098 
56 1 4.30045 -2.00596 -0.137006 
860 2 -4.02 -0.921344 -0.0560986 
530 1 -4.50916 -1.54994 -0.872045 
495 1 -3.52549 -1.46353 -0.549029 
563 1 -4.25623 -0.561122 -0.92654 
928 2 -2.59573 -0.286619 -1.43796 
571 1 -1.96122 -0.800231 -0.60278 
322 1 -2.98107 -0.593008 -0.824777 
1000 2 -2.06351 -1.4805 -0.0752049 
201 1 -1.30666 -1.3833 -1.02108 
85 1 -0.956178 -0.706178 -0.307447 
808 2 -1.32304 -0.451785 -1.03252 
19 1 -0.390941 -1.23643 -1.31743 
665 1 -0.0317954 -0.559392 -0.722578 
40 1 -0.114487 -1.30393 -0.00956496 
851 2 0.551817 -0.698863 -0.156836 
477 1 0.616927 -1.21188 -0.961464 
545 1 0.946547 -0.213102 -0.729964 
699 1 2.7316 -1.41435 -0.495541 
379 1 1.7774 -0.861115 -0.865246 
240 1 2.90927 -0.788616 -1.29372 
87 1 2.63494 -0.353938 -0.261369 
681 1 4.49564 -0.793874 -0.198221 
843 2 3.49488 -0.272336 -0.655856 
24 1 3.90756 -0.885812 -1.11073 
437 1 3.53364 -0.970788 -0.0464785 
924 2 -4.04472 -3.44181 0.297064 
233 1 -3.99214 -3.58054 1.17826 
716 1 -4.14076 -4.40364 0.700823 
618 1 -3.13386 -4.06819 0.330006 
344 1 -3.12793 -4.22006 1.33134 
4 1 -2.13906 -4.02642 0.616535 
556 1 -1.77625 -3.28517 1.166 
39 1 -2.87212 -3.28785 0.969308 
609 1 -1.42836 -3.36494 0.2601 
762 1 -1.00529 -4.49116 1.2525 
724 1 -0.834743 -3.42231 1.43075 
218 1 -1.15431 -4.34567 0.167595 
907 2 -0.424285 -4.32742 0.677262 
340 1 -0.424396 -3.3965 0.489225 
902 2 0.305832 -3.45721 0.828236 
80 1 0.0710716 -4.11247 1.31444 
785 1 1.0558 -3.7035 1.02295 
975 2 0.875641 -3.53707 0.0165237 
893 2 0.986021 -4.49 0.58037 
496 1 0.238735 -4.20499 0.190321 
690 1 2.58911 -4.13455 0.231024 
980 2 1.76719 -3.70008 0.567729 
276 1 2.70622 -3.29741 0.799796 
284 1 1.9402 -4.40659 0.943711 
262 1 4.5962 -3.34588 0.788497 
702 1 3.56627 -3.78341 0.376282 
31 1 3.15405 -4.3316 1.03215 
171 1 4.25243 -4.48827 0.542672 
921 2 3.94886 -3.86682 1.15009 
13 1 -3.85215 -2.66807 0.727686 
359 1 -4.08592 -1.74796 1.15675 
500 1 -4.13607 -1.77371 0.23623 
941 2 -2.61976 -2.49639 0.691419 
592 1 -3.10616 -2.14977 1.20246 
20 1 -1.66976 -2.22111 1.35109 
347 1 -2.97581 -2.05303 0.0201974 
418 1 -1.848 -2.26987 0.314302 
464 1 -0.844548 -2.58965 0.905829 
202 1 -0.3469 -2.34853 0.0625327 
737 1 -1.17252 -1.59284 0.218442 
848 2 0.90533 -2.87707 1.33285 
327 1 0.199421 -2.54593 1.10465 
95 1 1.14187 -2.1549 1.01219 
249 1 0.780808 -2.75916 0.362201 
844 2 0.464434 -1.84694 0.547904 
181 1 1.82764 -2.97153 1.10741 
643 1 2.06302 -2.11662 0.507662 
34 1 3.08011 -2.39037 1.2361 
60 1 3.12264 -2.09143 0.166755 
602 1 2.03037 -1.79006 1.37888 
607 1 4.59015 -2.39843 0.720252 
403 1 3.78725 -2.91898 0.973646 
566 1 4.01746 -2.07447 1.5091 
883 2 -3.31314 -1.51622 0.594735 
649 1 -3.83788 -0.702185 0.735283 
442 1 -3.26026 -1.16817 1.40954 
388 1 -2.39705 -1.5108 0.92696 
486 1 -1.82216 -0.854661 0.456226 
800 1 -2.826 -0.39451 0.821888 
17 1 -2.89354 -1.04755 0.0852484 
76 1 -1.63223 -0.255029 1.30087 
290 1 -0.387881 -1.51937 1.06492 
300 1 -1.36956 -1.23605 1.32803 
711 1 -0.66212 -0.487034 1.36438 
850 2 -0.735717 -0.855363 0.59888 
72 1 -0.245367 -0.193119 0.415674 
360 1 1.43142 -1.06203 1.00379 
64 1 0.296655 -0.794274 0.900495 
677 1 1.15528 -1.39903 0.0697686 
780 1 0.495176 -1.54328 1.53431 
621 1 1.34756 -0.11484 1.17156 
874 2 2.58135 -0.133229 0.555066 
918 2 2.04311 -0.552023 1.12765 
472 1 2.69838 -0.0233081 1.3905 
778 1 2.62436 -1.00625 0.804687 
656 1 1.59825 -0.407392 0.199362 
884 2 2.09454 -1.38688 0.195102 
581 1 3.58385 -1.4792 0.868003 
996 2 3.23251 -0.716357 1.35105 
871 2 4.68163 -0.423426 0.451811 
68 1 4.50599 -1.2144 0.772914 
285 1 3.80347 -0.49458 0.781307 
840 2 4.42507 -0.352979 1.53721 
319 1 -4.59463 -4.24027 1.69029 
126 1 -4.41265 -3.45711 2.60906 
708 1 -3.7009 -4.05264 2.20026 
449 1 -4.45934 -4.56672 2.83759 
626 1 -2.73693 -4.45528 2.684 
524 1 -1.60771 -3.98744 1.89022 
748 1 -2.08979 -3.65419 2.92393 
732 1 -2.64496 -3.59314 2.02371 
990 2 -3.1021 -3.46312 2.74732 
693 1 -1.30268 -4.25354 2.922 
655 1 -0.638965 -4.06451 2.13109 
870 2 -1.24814 -3.54265 2.49011 
922 2 0.0901302 -3.78487 2.66476 
493 1 0.134638 -3.24141 2.06256 
254 1 1.34971 -3.28005 1.94249 
375 1 0.819039 -4.2097 2.00025 
336 1 0.752598 -3.26488 2.90272 
147 1 0.119895 -4.63051 2.71856 
888 2 1.8089 -4.31424 2.48504 
70 1 1.63829 -3.7467 3.01545 
689 1 2.17702 -3.85183 1.84205 
161 1 2.45686 -3.38084 2.73915 
404 1 2.99141 -4.20165 2.52236 
773 1 4.23008 -3.36847 1.72321 
687 1 3.21785 -3.43218 1.79747 
815 2 4.36009 -4.0266 2.32048 
204 1 3.71764 -4.36173 1.84125 
674 1 3.73917 -3.43106 2.67267 
209 1 3.97094 -4.51929 2.82961 
770 1 -3.45417 -2.96653 1.94336 
568 1 -4.40906 -2.74038 1.60399 
754 1 -3.50728 -1.93152 2.21783 
999 2 -4.29274 -2.33906 2.57999 
570 1 -4.58707 -1.77194 2.0516 
144 1 -3.6914 -2.8711 2.91406 
604 1 -4.30702 -1.59877 2.97006 
987 2 -2.38248 -2.6893 1.58456 
155 1 -2.44099 -1.9235 2.15275 
138 1 -2.62508 -2.66933 2.73088 
30 1 -1.63105 -2.52116 2.95314 
239 1 -1.81153 -2.99658 2.0989 
409 1 -1.44464 -1.76584 2.26809 
680 1 -0.783968 -2.6138 1.95919 
565 1 -0.671004 -3.03636 2.95398 
946 2 -0.0927851 -2.15156 1.88278 
890 2 -0.790282 -2.13286 2.64107 
392 1 0.788363 -2.44082 2.02937 
44 1 0.145866 -2.35194 2.82671 
862 2 0.996169 -2.051 2.80971 
289 1 1.3966 -1.70379 2.14809 
77 1 2.44974 -2.74655 1.9187 
812 2 1.57657 -2.43219 1.74854 
958 2 2.48209 -1.83768 2.54727 
278 1 1.60703 -2.67205 2.65471 
364 1 3.34546 -2.20625 2.2877 
140 1 4.22389 -2.6382 2.3674 
179 1 4.11348 -1.71686 2.87745 
67 1 -4.32739 -0.874959 1.65337 
330 1 -3.63062 -0.934552 2.49234 
582 1 -4.02132 -0.104354 3.0164 
335 1 -3.03711 -1.56141 3.06595 
813 2 -2.94268 -0.50351 2.22977 
268 1 -2.2738 -1.01966 2.69752 
124 1 -2.32734 -0.898241 1.74099 
385 1 -2.92805 -0.366215 3.12213 
191 1 -0.377748 -1.42566 2.21457 
635 1 -1.1994 -0.641956 2.30136 
58 1 -0.185412 -0.531311 2.63552 
900 2 0.227243 -0.797283 1.78096 
925 2 0.611872 -0.371566 2.76594 
165 1 0.977541 -0.454229 2.00544 
703 1 0.697195 -1.20727 2.67017 
580 1 2.89662 -1.41305 1.7444 
102 1 1.68722 -0.727431 2.94753 
206 1 3.08364 -1.47166 3.01582 
746 1 2.0088 -0.803312 1.96957 
412 1 3.09426 -0.546106 2.24371 
967 2 3.56101 -1.2559 2.39226 
765 1 4.54684 -0.641859 2.55685 
207 1 3.94004 -1.04119 1.7093 
503 1 3.63233 -0.597471 3.1244 
469 1 -3.23863 -3.82279 4.47759 
312 1 -4.34999 -4.54057 3.9571 
539 1 -3.60695 -3.97115 3.19644 
753 1 -4.25351 -3.39434 3.66239 
396 1 -2.22434 -3.38781 4.494 
740 1 -2.58036 -4.15672 3.67053 
547 1 -2.9038 -3.26192 3.56506 
259 1 -1.59074 -4.68436 4.01507 
589 1 -0.879415 -3.90314 4.57433 
265 1 -1.40525 -3.49177 3.80409 
573 1 -0.436565 -3.88094 3.54251 
248 1 0.232841 -3.84336 4.4053 
441 1 0.716934 -4.02419 3.50708 
787 1 1.06075 -3.22386 4.30356 
329 1 1.55089 -4.16491 4.06928 
826 2 1.97861 -4.67905 3.46915 
42 1 2.75735 -3.84007 4.59727 
143 1 3.11323 -3.37775 3.56948 
735 1 2.49643 -4.12865 3.54904 
639 1 2.1071 -3.15027 3.67253 
955 2 4.26567 -4.68952 3.68386 
203 1 3.72939 -3.26518 4.59827 
864 2 4.5988 -3.89396 3.27813 
94 1 3.40548 -4.45534 3.90184 
286 1 4.25907 -4.00134 4.1351 
334 1 4.14989 -3.15454 3.54643 
308 1 -3.66808 -2.6989 4.19245 
189 1 -4.69043 -2.42818 3.31195 
35 1 -4.44966 -1.92345 4.09554 
866 2 -3.5535 -2.24728 3.46631 
283 1 -3.43427 -1.63485 4.27367 
679 1 -2.38665 -1.91821 4.66856 
857 2 -2.96445 -2.94059 4.41976 
847 2 -2.06587 -2.89447 3.72194 
414 1 -2.71726 -2.29702 3.71219 
453 1 -0.705662 -2.93131 4.38643 
384 1 -1.51772 -2.29726 4.11377 
372 1 -0.573116 -2.25381 3.57291 
25 1 0.161926 -3.05743 3.72415 
574 1 0.0211061 -1.584 4.51462 
909 2 0.886252 -1.9706 4.45142 
156 1 1.0929 -2.49883 3.52852 
809 2 0.167024 -2.22283 3.88727 
258 1 0.255445 -2.54242 4.69548 
661 1 1.65564 -1.67793 3.18661 
407 1 2.40738 -2.3164 3.2682 
321 1 1.89702 -2.21809 4.18218 
305 1 2.90756 -2.63773 4.22736 
33 1 3.81857 -2.16741 4.53312 
103 1 4.64823 -2.88975 4.38213 
163 1 3.49163 -2.36475 3.43563 
854 2 4.17249 -1.97518 3.77289 
977 2 -4.23041 -1.0584 4.26748 
533 1 -4.59923 -0.268496 4.44382 
791 1 -3.63855 -0.483091 4.5755 
642 1 -3.74388 -0.885984 3.58708 
995 2 -2.81989 -0.970197 3.70897 
458 1 -1.9784 -0.961365 4.32063 
426 1 -2.64989 -0.229741 4.13069 
310 1 -2.14929 -1.54183 3.51467 
176 1 -1.84944 -0.461342 3.46213 
908 2 -1.39855 -0.390892 4.16019 
188 1 -1.30305 -1.49836 3.14096 
572 1 -0.759751 -0.497468 3.37551 
125 1 -0.15787 -1.33424 3.34846 
197 1 -0.97078 -1.31984 4.14139 
459 1 0.737456 -1.54815 3.65835 
108 1 0.131567 -0.677146 4.05884 
244 1 0.87227 -0.621313 3.50276 
389 1 1.55698 -1.24284 4.16942 
180 1 2.46642 -1.4028 3.81386 
818 2 3.11345 -0.739605 3.90538 
666 1 2.68289 -0.489431 3.21831 
653 1 2.3546 -0.475115 4.36447 
401 1 3.82831 -0.41914 4.1876 
494 1 3.59996 -1.36643 3.99205 
608 1 4.5658 -0.976504 3.5975 
66 1 -3.92387 0.648596 -3.5552 
26 1 -3.72081 1.29246 -4.33029 
721 1 -2.73304 0.752198 -3.61594 
512 1 -2.03088 0.958437 -4.30225 
713 1 -1.76268 0.0882945 -3.55875 
224 1 -2.97126 0.606464 -4.5415 
625 1 -1.01713 0.473209 -4.12908 
561 1 -1.40913 1.0239 -3.36451 
260 1 -1.10892 1.52177 -4.15858 
257 1 -0.363038 1.00588 -3.56362 
145 1 -0.304187 0.0447895 -3.49025 
764 1 0.00605145 0.613034 -4.49822 
217 1 0.957624 0.760633 -4.25986 
947 2 0.368913 0.450101 -3.75883 
49 1 1.46854 0.363422 -3.16536 
266 1 0.563141 1.16172 -3.17624 
767 1 2.62599 0.469887 -3.80367 
314 1 2.59686 1.4791 -3.51001 
605 1 1.75666 1.27517 -3.77953 
936 2 4.09702 1.35291 -4.43361 
755 1 3.57685 0.75924 -3.8945 
482 1 4.52889 1.10884 -3.15558 
682 1 4.17029 0.122379 -3.33086 
794 1 4.64296 0.545051 -4.14097 
535 1 3.17102 1.36485 -4.56061 
499 1 -3.61154 2.32434 -3.83536 
416 1 -4.59352 1.80279 -4.10495 
684 1 -4.62304 2.77394 -4.16763 
992 2 -4.30201 3.02122 -3.15741 
205 1 -3.59237 3.10015 -4.68441 
456 1 -2.64411 1.76635 -3.84733 
802 2 -1.78195 1.72912 -3.69619 
502 1 -1.62807 2.46088 -3.9821 
358 1 -2.66755 2.78324 -3.94412 
828 2 -2.98484 2.29756 -3.20529 
241 1 -1.81591 1.86618 -4.68854 
352 1 -0.25716 3.0528 -3.39847 
281 1 -1.04641 1.99199 -3.23576 
600 1 -0.625141 2.43003 -4.10593 
110 1 -0.129512 1.62918 -4.37441 
612 1 -0.0239116 1.92895 -3.40223 
805 2 0.736801 1.5933 -3.92469 
99 1 0.486878 2.59997 -4.17852 
865 2 1.24201 2.48932 -4.47872 
141 1 1.36571 2.17964 -3.69158 
337 1 1.23995 1.72358 -4.68337 
269 1 0.716098 2.71828 -3.16647 
669 1 1.62066 3.10427 -3.73952 
230 1 2.19787 2.03079 -4.37481 
275 1 2.41742 2.60331 -3.49719 
986 2 3.09194 2.0839 -3.9618 
521 1 2.96658 2.86488 -4.54836 
876 2 2.03006 2.88715 -4.39409 
591 1 3.87221 2.14385 -4.58234 
117 1 3.87435 1.71044 -3.58653 
497 1 3.61363 2.70914 -3.73579 
431 1 4.58686 2.33788 -3.15872 
640 1 -3.68814 3.32002 -3.6216 
190 1 -3.67723 4.23743 -3.58669 
227 1 -4.32979 3.77953 -4.24921 
757 1 -3.28561 4.11525 -4.53301 
983 2 -2.94414 3.66364 -3.90752 
354 1 -1.99091 3.49927 -3.60471 
8 1 -2.29927 3.776 -4.53517 
846 2 -2.45115 4.35177 -3.92279 
132 1 -1.36495 3.33149 -4.41666 
606 1 -0.874215 3.9497 -3.51225 
57 1 -0.25608 3.56516 -4.32492 
377 1 -1.51991 4.32418 -4.11618 
585 1 0.0607522 4.46602 -4.21804 
362 1 0.764422 3.58249 -3.91168 
21 1 2.56338 3.5459 -3.83869 
743 1 2.70419 4.53245 -4.13701 
550 1 1.63211 4.06883 -4.18164 
824 2 2.96183 4.01723 -3.32901 
776 1 3.54203 3.72565 -4.06033 
768 1 4.45546 3.38038 -3.45762 
440 1 4.54632 4.41789 -3.38876 
301 1 3.66796 4.64175 -3.97854 
793 1 -3.72046 1.02771 -1.75913 
131 1 -3.53437 1.47613 -3.13556 
551 1 -4.27478 0.688488 -2.6155 
455 1 -3.25173 0.486876 -2.80194 
540 1 -4.53434 0.375558 -1.72479 
919 2 -3.35216 0.297747 -2.05247 
803 2 -2.88924 1.21249 -2.50349 
101 1 -2.60111 0.575197 -1.70516 
90 1 -2.00006 0.48647 -2.56295 
83 1 -2.14001 1.39794 -2.031 
342 1 -2.28919 1.47421 -3.00793 
905 2 -1.54441 1.26289 -2.57603 
430 1 -1.34559 0.783817 -1.85972 
792 1 -0.576415 1.28597 -2.6424 
960 2 -0.622373 0.569531 -2.01534 
405 1 -0.978914 0.269371 -2.76481 
394 1 -0.565921 1.49345 -1.64194 
965 2 0.0357938 0.430426 -2.88178 
973 2 1.31532 1.53076 -3.13561 
662 1 0.989971 1.04946 -2.29276 
212 1 0.199103 0.370158 -2.01682 
628 1 1.09225 0.199602 -1.72099 
953 2 0.823742 0.301392 -2.57748 
185 1 2.44464 0.511336 -2.83737 
599 1 1.97769 0.641361 -1.84134 
668 1 3.13157 0.790657 -1.79481 
484 1 2.00766 1.38052 -2.69339 
341 1 3.32254 0.871139 -2.9581 
48 1 4.0356 0.605328 -2.31964 
833 2 3.57479 0.00964652 -2.67659 
433 1 -4.38961 1.68578 -2.44135 
261 1 -3.80035 2.42291 -2.83089 
236 1 -3.5322 2.83043 -1.65221 
136 1 -4.4706 2.93786 -2.21284 
667 1 -3.16437 1.96355 -2.17349 
302 1 -3.06317 3.13381 -2.86208 
725 1 -2.17496 2.48786 -3.09624 
624 1 -2.43497 2.65113 -2.06084 
274 1 -1.2849 3.13449 -2.05389 
169 1 -1.24033 3.01403 -3.08461 
718 1 -1.45199 2.10478 -2.29225 
537 1 -0.434162 2.46934 -2.43053 
981 2 -0.446076 3.0413 -1.64555 
182 1 0.227011 1.74615 -2.3428 
557 1 1.25546 2.07978 -2.53933 
950 2 1.00987 1.8112 -1.70059 
296 1 0.481266 2.56212 -1.94614 
271 1 2.75656 1.69738 -2.05981 
831 2 1.72278 2.61981 -3.06167 
345 1 2.23981 2.55073 -2.3611 
380 1 1.81323 1.62574 -1.73842 
789 1 3.1578 2.09858 -2.86678 
715 1 3.83513 1.62302 -2.34062 
423 1 4.46506 2.22096 -1.85608 
386 1 3.85763 2.93625 -2.7096 
390 1 3.2728 2.59019 -1.93597 
10 1 -3.95442 3.78604 -2.70307 
714 1 -4.19941 3.72784 -1.63031 
118 1 -3.17568 4.06413 -2.09388 
887 2 -3.72639 4.67332 -1.97279 
970 2 -4.17773 4.6227 -2.87009 
480 1 -2.73182 4.09136 -3.11512 
282 1 -2.1541 3.58578 -2.42769 
587 1 -1.7027 4.29598 -3.02721 
623 1 -1.78508 4.33719 -1.78081 
123 1 -0.87799 4.61989 -2.61064 
46 1 -0.377 3.4011 -2.46352 
886 2 -1.2427 4.00249 -2.30625 
546 1 -0.822779 3.90944 -1.65048 
784 1 0.173235 4.02868 -3.13525 
633 1 1.14005 4.03979 -3.13105 
821 2 0.557067 3.48292 -2.68246 
632 1 0.310125 3.57316 -1.713 
515 1 1.2917 3.31951 -2.34308 
439 1 1.20484 4.04019 -1.70129 
104 1 0.15794 4.48284 -2.28313 
729 1 2.95138 3.23803 -2.85209 
373 1 2.06633 3.69041 -2.96091 
238 1 2.79524 4.17465 -2.33492 
634 1 2.17071 3.42552 -1.7253 
774 1 1.77596 4.4561 -2.34818 
940 2 3.65158 4.647 -2.24332 
660 1 4.08879 3.24583 -1.70582 
849 2 3.39044 3.54892 -2.16922 
219 1 3.786 3.96283 -2.83099 
994 2 4.35759 3.67778 -2.35748 
506 1 4.5404 4.47753 -2.33669 
172 1 -4.23105 0.059494 -0.0566472 
173 1 -3.58263 0.266391 -1.11217 
549 1 -4.38291 0.952077 -0.740229 
323 1 -3.3609 1.27651 -0.777027 
395 1 -3.25261 0.0242236 -0.0323421 
601 1 -4.00876 1.52803 -0.043609 
837 2 -2.82869 1.40185 -1.54838 
917 2 -1.93577 0.752654 -1.11029 
578 1 -2.6384 0.417388 -0.763217 
92 1 -2.36 1.42585 -0.878079 
9 1 -1.58985 0.235621 -0.610298 
298 1 -0.68184 0.882539 -0.0905539 
951 2 -0.449024 0.122913 -0.372794 
89 1 -1.30559 1.33884 -0.86012 
100 1 -0.502031 0.530069 -1.1313 
577 1 -0.258722 1.55681 -0.60529 
391 1 1.42428 0.571312 -0.161937 
997 2 0.426953 0.255424 -1.20287 
211 1 0.337173 0.627457 -0.432159 
683 1 1.26815 0.962681 -1.09675 
788 1 0.350936 1.23613 -1.41869 
234 1 0.745262 1.43041 -0.00235923 
879 2 2.67093 0.140537 -1.43702 
157 1 1.90997 0.107546 -1.02084 
707 1 2.4099 0.995533 -1.03251 
835 2 2.23109 0.609304 -0.311455 
470 1 3.18515 0.481979 -0.631146 
880 2 3.69129 0.891442 -1.2065 
527 1 4.51172 1.30631 -1.43943 
363 1 3.93759 1.13206 -0.401124 
424 1 4.23376 0.207644 -0.975307 
548 1 4.10194 0.111702 -0.00587802 
760 1 -4.06435 2.02159 -1.23013 
462 1 -4.11415 2.51659 -0.364603 
777 1 -4.57742 2.90583 -1.07128 
842 2 -1.66142 2.71322 -0.327059 
114 1 -2.9674 2.20003 -1.06448 
651 1 -2.07323 2.00294 -0.00421507 
664 1 -2.56608 2.98047 -0.415448 
723 1 -2.02564 2.28635 -1.21234 
697 1 -0.0229674 2.60112 -0.251848 
974 2 -1.47573 1.66462 -1.55314 
671 1 -0.962452 2.40169 -1.10661 
51 1 -1.0643 2.00397 -0.134676 
637 1 0.690043 2.94485 -0.949773 
935 2 0.177109 2.13698 -1.2654 
220 1 0.90245 1.91612 -0.852427 
11 1 1.81097 1.63151 -0.482896 
208 1 1.64753 2.60703 -1.42396 
411 1 1.63481 2.68107 -0.408848 
160 1 2.53922 2.10331 -1.22287 
28 1 2.38263 3.09072 -0.792119 
514 1 2.53426 2.30126 -0.108414 
277 1 3.55416 1.69139 -1.39741 
228 1 4.21672 2.0376 -0.69981 
88 1 4.2883 2.91828 -0.162749 
444 1 3.33212 2.57061 -0.796744 
927 2 4.03881 3.06044 -0.898844 
984 2 3.36322 1.72324 -0.609475 
761 1 -3.52959 3.29366 -0.636442 
538 1 -3.53357 4.31779 -1.14065 
37 1 -4.58981 3.96378 -0.63079 
532 1 -3.64053 4.2744 -0.122078 
246 1 -2.03452 4.67386 -0.232465 
685 1 -1.77644 3.36889 -1.21292 
529 1 -2.74056 3.48369 -1.44556 
814 2 -1.93239 4.2814 -0.989207 
659 1 -2.7087 3.98503 -0.622404 
178 1 -1.6041 3.79152 -0.307912 
382 1 -0.863286 3.28545 -0.673418 
81 1 -0.102549 3.96156 -0.602233 
213 1 -0.952677 4.48189 -0.73864 
903 2 -0.347948 4.63477 -0.156309 
912 2 0.817665 4.01645 -0.861099 
795 1 0.673484 4.29457 -0.0358883 
631 1 0.271985 4.49829 -1.32136 
398 1 2.05994 4.39359 -1.35122 
361 1 2.18839 4.4079 -0.360117 
726 1 1.60417 3.74509 -0.656185 
877 2 2.86182 3.66464 -0.634508 
695 1 3.86329 3.80356 -0.588278 
663 1 3.22132 3.21244 -0.0710005 
303 1 3.92717 4.20847 -1.49628 
614 1 3.1463 4.52258 -0.886601 
719 1 3.13941 3.49588 -1.40897 
14 1 -3.56463 0.595358 0.736097 
113 1 -4.48685 0.0912759 1.07167 
461 1 -4.51064 0.901674 0.508014 
41 1 -3.26645 1.52908 0.900068 
650 1 -4.19285 0.97198 1.53789 
318 1 -2.05213 0.694785 1.08495 
1 1 -2.2285 0.101748 0.124213 
914 2 -2.70138 0.455744 0.651361 
63 1 -1.76376 0.978077 0.123579 
452 1 -2.85569 1.15616 0.0657508 
738 1 -1.09517 1.2329 1.02439 
331 1 -1.21779 0.161174 0.413583 
856 2 -0.646826 0.25233 0.971104 
287 1 -0.0324859 0.844545 0.665659 
371 1 0.672897 0.0669556 0.338758 
698 1 1.01776 0.970017 0.883845 
168 1 0.382806 0.162746 1.4055 
96 1 2.99426 1.01758 1.21045 
264 1 2.18501 0.588352 0.542218 
351 1 2.96207 1.29342 0.0822025 
399 1 1.94898 1.48633 0.532105 
232 1 3.23914 0.346115 0.442244 
863 2 4.18709 0.40413 0.969819 
243 1 3.83607 1.16576 0.667343 
806 2 -4.26645 1.56897 0.915234 
397 1 -3.94339 2.37598 0.758318 
528 1 -3.51028 3.13205 1.21692 
479 1 -4.70371 2.92538 1.19129 
832 2 -3.05123 2.44444 0.840105 
355 1 -2.27437 1.76668 1.00109 
328 1 -2.04481 2.88771 0.453317 
97 1 -2.35896 2.75069 1.47113 
758 1 -3.06095 2.2031 0.0086316 
107 1 -0.0884004 1.74767 0.402111 
658 1 -1.35295 2.22546 0.86391 
223 1 -0.616377 2.81205 1.31028 
899 2 -0.594167 2.48343 0.53277 
978 2 -1.49161 2.99725 1.18912 
696 1 0.284563 1.69654 1.40941 
200 1 0.45482 2.58443 0.714274 
867 2 1.06745 2.05446 0.994121 
916 2 0.880816 2.2918 0.00706134 
84 1 1.70461 2.49802 0.591493 
889 2 1.97348 2.48954 1.32948 
194 1 2.62169 1.88023 1.25904 
15 1 2.89765 2.87988 0.963226 
799 1 1.66786 1.59512 1.52829 
106 1 3.56354 2.14955 0.137107 
129 1 3.71668 2.1528 1.14301 
170 1 4.54863 2.05559 0.360087 
781 1 4.61208 1.8192 1.49567 
3 1 -4.12199 3.40719 0.342407 
166 1 -3.56156 4.09955 1.04859 
309 1 -4.6379 3.98798 1.21459 
868 2 -1.69285 4.70023 0.703737 
137 1 -3.12229 3.4399 0.283537 
576 1 -2.66852 4.41254 0.642307 
346 1 -2.63778 3.73787 1.40718 
504 1 -1.66984 3.7517 0.916797 
957 2 -2.31756 3.75303 0.347585 
518 1 -2.0593 4.59046 1.51368 
231 1 -1.12152 3.16726 0.330726 
750 1 -0.848999 4.12396 0.194455 
402 1 -0.0571658 3.471 0.301155 
544 1 -0.733993 3.89623 1.18891 
270 1 0.00869623 4.4118 0.747047 
672 1 1.0695 3.23452 1.35802 
575 1 0.80878 4.28968 1.35787 
766 1 0.953367 3.25612 0.167149 
645 1 1.54711 4.09843 0.514501 
678 1 0.125062 3.43991 1.54041 
105 1 2.60464 4.19564 0.75227 
993 2 2.98375 3.68376 1.38517 
435 1 2.02034 3.58258 1.37885 
622 1 2.22726 3.33305 0.279978 
756 1 4.3877 3.97471 0.259566 
293 1 3.7072 4.19327 1.17278 
523 1 3.83869 3.15106 0.759237 
597 1 3.32645 4.32237 0.0638773 
490 1 -3.525 0.0798289 1.70132 
226 1 -3.7001 1.51692 2.29603 
942 2 -3.92938 0.534024 2.2766 
365 1 -3.24026 0.522301 2.67818 
510 1 -4.62517 1.14781 2.4824 
109 1 -4.67168 0.188994 2.0435 
991 2 -3.5121 1.23618 3.1094 
152 1 -2.9668 0.917512 1.65451 
825 2 -2.20611 0.874009 2.02302 
564 1 -1.59597 1.48243 1.76949 
292 1 -1.74528 1.04623 2.61708 
280 1 -2.09985 0.0550993 2.47889 
387 1 -2.67278 1.29992 3.05249 
968 2 -2.53099 0.177314 1.63407 
594 1 -1.15616 0.456768 1.8233 
736 1 -0.30982 0.971332 1.70041 
73 1 -0.682928 1.07082 2.69575 
963 2 -0.634182 0.219094 2.76415 
956 2 -0.39417 0.0921224 1.99497 
339 1 0.299037 0.33439 2.39679 
961 2 1.01576 1.25811 2.63773 
61 1 0.871762 1.01462 1.83861 
829 2 1.41165 0.193561 2.33874 
722 1 1.17301 0.326525 3.12049 
720 1 1.92674 0.615676 1.62667 
121 1 2.94284 0.636264 2.158 
939 2 3.07224 0.188037 2.87365 
199 1 1.89624 1.13688 2.47429 
450 1 2.22671 0.0487302 2.53829 
421 1 3.71482 0.0427639 1.67873 
673 1 3.86881 0.208657 2.67286 
915 2 3.96698 1.36037 2.55626 
629 1 4.13442 1.00946 1.63537 
120 1 3.2856 1.09126 2.97781 
353 1 -3.37396 2.24297 1.6807 
558 1 -4.464 2.2194 2.39209 
317 1 -3.25059 2.25042 2.77423 
926 2 -4.14369 2.68518 1.72786 
22 1 -3.98541 3.02873 2.96122 
845 2 -2.87737 2.79631 2.24978 
242 1 -2.15005 2.67073 2.67888 
78 1 -2.42429 1.81469 2.10448 
593 1 -0.580347 1.9268 1.75428 
554 1 -1.38113 2.58962 1.88536 
162 1 -1.25249 1.97327 2.62452 
731 1 -0.417251 2.76897 2.37527 
775 1 -1.28662 3.09652 2.74845 
858 2 0.208718 2.55935 1.67626 
567 1 0.20769 1.72762 2.38039 
798 1 1.08134 2.37115 1.72028 
267 1 0.729556 3.09636 2.404 
641 1 1.20675 2.02357 2.7803 
177 1 0.412676 2.45438 3.03256 
615 1 2.92408 2.58187 2.01094 
374 1 1.89184 2.64982 2.24836 
934 2 2.23688 1.92129 2.08886 
526 1 2.37132 2.88775 3.07756 
174 1 3.22194 1.60751 2.14977 
555 1 3.93238 2.36474 2.12089 
466 1 4.24677 2.00164 3.1093 
253 1 -3.92206 4.43181 1.92529 
954 2 -4.10633 3.67645 1.71357 
938 2 -4.26128 3.91665 2.56718 
370 1 -3.43141 3.42415 2.20403 
476 1 -3.61123 4.21592 3.03187 
872 2 -1.9063 4.63089 2.4013 
393 1 -1.74582 3.58736 1.89483 
811 2 -2.98605 4.56872 1.86138 
487 1 -2.55949 3.93674 2.48575 
74 1 -1.5943 4.12743 2.94787 
730 1 -0.054292 4.43812 1.81676 
810 2 -0.831378 3.59159 1.96475 
488 1 -0.167837 3.78448 2.57681 
616 1 -1.08115 4.34936 2.16587 
369 1 1.18854 4.61423 3.05824 
111 1 0.821101 4.12461 2.32466 
325 1 1.63624 3.72954 2.75879 
127 1 2.71111 4.42411 1.75569 