ITEM: TIMESTEP
8000
ITEM: NUMBER OF ATOMS
1000
ITEM: BOX BOUNDS pp pp pp
-4.7050000000000001e+00 4.7050000000000001e+00
-4.7050000000000001e+00 4.7050000000000001e+00
-4.7050000000000001e+00 4.7050000000000001e+00
ITEM: ATOMS id type x y z 
199 1 4.21001 -3.44444 -4.53341 
933 2 -4.26333 -0.102666 -0.668156 
31 1 -3.45104 -4.17143 -4.22019 
588 1 3.16087 -0.306158 -1.28112 
555 1 3.07797 -0.14878 -0.253719 
198 1 -3.4235 -3.0351 -3.36387 
3 1 -4.52319 -4.41274 -3.81005 
174 1 -1.8269 -4.0264 -3.97695 
2 1 -2.45238 -3.08331 -3.33171 
817 2 -2.66234 -3.7095 -3.81771 
458 1 -1.62416 -4.19569 -2.76745 
553 1 -0.16765 -3.87419 -4.43007 
828 2 -1.0384 -4.15825 -4.49791 
62 1 -0.907614 -4.29117 -3.63857 
8 1 -1.4026 -3.35888 -3.31484 
97 1 -3.54146 -1.50526 -4.61471 
897 2 1.33652 -3.40406 -4.6061 
111 1 -1.91852 -2.43463 -4.64582 
9 1 0.824565 -3.98904 -4.02468 
82 1 4.18254 -0.263882 -1.39036 
33 1 1.78042 -3.85177 -3.79965 
41 1 2.40809 -4.37115 -3.27059 
659 1 -1.20631 -0.436518 -4.4698 
849 2 -1.13615 -0.0377181 -2.10124 
32 1 3.36785 -3.2164 -3.92745 
327 1 0.567479 -0.54958 -0.170198 
558 1 3.20352 -3.78196 -3.08702 
60 1 2.8825 -4.14172 -4.16001 
804 2 -3.70172 -2.66775 -2.57744 
105 1 -4.2065 -3.46272 -3.94032 
194 1 -4.06365 -2.36923 -3.84654 
943 2 3.82044 -0.0534163 -3.15438 
26 1 3.62346 -0.937508 -0.610454 
289 1 -3.00398 -2.28023 -2.81016 
238 1 -4.59323 -2.53548 -0.0930527 
19 1 -2.75707 -2.25987 -4.04527 
739 1 4.59922 -0.172884 -4.44592 
42 1 -1.28123 -2.31286 -3.7307 
575 1 -0.816065 -0.362336 -2.96961 
137 1 -0.399945 -3.08871 -3.85579 
21 1 -0.315654 -2.15015 -3.2638 
841 2 2.66381 -2.3829 -0.213601 
808 2 -2.07508 -0.63496 -4.5691 
200 1 0.587967 -2.96187 -4.2359 
65 1 0.690317 -2.09792 -3.59197 
113 1 1.58192 -2.53067 -4.27613 
679 1 2.0839 -4.0042 -0.218682 
15 1 1.75009 -1.96063 -3.3164 
4 1 2.59505 -2.66296 -3.42382 
77 1 2.38674 -1.78485 -4.05552 
187 1 3.29039 -1.76543 -3.65415 
159 1 3.22512 -2.42578 -4.57629 
46 1 3.73522 -2.61454 -3.26958 
520 1 4.54685 -0.226337 -2.34251 
274 1 4.26968 -2.48079 -4.17682 
186 1 -3.38258 -1.56575 -3.63118 
72 1 -4.39532 -1.22312 -3.93252 
95 1 -3.583 -0.578819 -3.62815 
67 1 4.45059 -0.578615 -3.30881 
142 1 -2.67308 -0.777568 -3.89553 
154 1 -1.7612 -1.47288 -4.15721 
293 1 -1.58754 -0.746176 -3.47969 
836 2 -2.55509 -0.198512 -3.20577 
54 1 0.205863 -4.59104 -1.96413 
12 1 -1.32849 -0.473696 -1.17185 
53 1 -0.786097 -1.33566 -3.73727 
963 2 -1.95626 -3.07213 -3.99323 
482 1 -1.32432 -1.53609 -2.85444 
212 1 -0.427868 -0.306226 -3.91193 
538 1 -0.104172 -2.1611 -4.31538 
180 1 1.18145 -1.58116 -4.24698 
740 1 0.810409 -0.538889 -4.09979 
147 1 1.28132 -1.07599 -3.23641 
144 1 0.269381 -1.25821 -3.75576 
821 2 1.12862 -0.229016 -3.32563 
48 1 1.80634 -0.837137 -4.06817 
701 1 0.830318 -4.44196 -0.815918 
14 1 2.50271 -0.967962 -3.2478 
392 1 2.89626 -0.853304 -4.22847 
112 1 3.96948 -0.995755 -4.13223 
151 1 4.36219 -1.65019 -3.37153 
921 2 -3.99802 -0.0938099 -2.18925 
988 2 0.34611 -4.63641 -4.70082 
136 1 -3.02214 -3.46475 -2.48785 
857 2 1.49887 -4.31771 -4.46871 
183 1 -3.7555 -3.93454 -3.18789 
69 1 -3.94771 -0.582913 -4.5497 
948 2 -3.66191 -3.87278 -2.09495 
45 1 -2.93249 -4.22638 -1.77219 
206 1 -2.70551 -4.21184 -3.09116 
894 2 -2.30936 -3.84615 -2.40318 
153 1 -0.879457 -4.3414 -1.88838 
934 2 -0.116478 -4.14717 -3.479 
471 1 0.209317 -0.376297 -3.11916 
66 1 -0.620585 -3.86454 -2.70163 
140 1 0.0727785 -3.55887 -2.05131 
842 2 -0.662359 -3.56418 -1.68168 
189 1 0.249103 -3.10974 -3.10898 
169 1 1.08503 -3.47251 -2.20268 
75 1 0.603496 -4.16555 -2.8506 
803 2 2.34557 -4.37122 -2.40206 
28 1 1.56968 -4.14987 -2.77726 
114 1 2.99838 -3.68577 -2.03299 
314 1 4.26032 -1.59965 -0.278779 
94 1 4.32212 -3.42245 -3.54492 
822 2 2.5969 -3.57186 -3.60677 
360 1 -2.56519 -3.49054 -4.6167 
851 2 -4.59046 -3.97252 -3.04693 
195 1 -4.6128 -4.13437 -2.21166 
499 1 3.84292 -3.29706 -2.52857 
158 1 -3.96808 -2.66682 -0.963585 
132 1 -4.34978 -3.23625 -2.62159 
138 1 -3.33291 -1.83948 -1.86963 
127 1 -4.40065 -2.23718 -1.74087 
150 1 -3.43548 -2.82124 -1.79989 
820 2 -2.48205 -2.74493 -2.11327 
160 1 -2.47386 -3.34281 -1.50587 
89 1 -0.836226 -2.8116 -2.6672 
204 1 -1.71357 -3.30475 -2.31106 
92 1 -1.82016 -2.4013 -2.63495 
73 1 -0.883106 -1.96971 -2.02012 
149 1 -0.748218 -2.81925 -1.33833 
823 2 0.883713 -2.55521 -2.88518 
96 1 1.30316 -3.29779 -3.16344 
39 1 1.66518 -2.60653 -2.49628 
134 1 0.111956 -2.52429 -2.24978 
145 1 0.718024 -1.78086 -2.53802 
11 1 0.987018 -2.17701 -1.6976 
52 1 1.74924 -1.48755 -1.2989 
30 1 2.25326 -3.44926 -2.74821 
825 2 1.98709 -2.15976 -1.84444 
104 1 2.61675 -2.59797 -2.21625 
37 1 2.53769 -2.19622 -1.23378 
806 2 2.53321 -1.91141 -2.85826 
845 2 4.64815 -2.5225 -3.28427 
76 1 4.35179 -2.44875 -2.51083 
917 2 -3.1585 -0.115259 -4.23273 
847 2 3.06329 -3.0314 -2.82741 
148 1 3.3607 -2.82412 -1.64643 
181 1 -4.13969 -1.82594 -2.87423 
398 1 -3.9445 -0.877606 -2.54261 
492 1 -4.17955 -0.585497 -1.45305 
93 1 -2.87743 -0.895299 -1.83588 
939 2 -4.34373 -1.25891 -1.82774 
809 2 0.631279 -2.1459 -4.55544 
90 1 -2.26843 -1.72825 -3.27202 
13 1 -3.13923 -1.31521 -2.71617 
44 1 -2.24161 -1.62121 -2.10458 
170 1 -2.2192 -0.710377 -2.55967 
117 1 -0.315423 -1.1581 -4.64535 
846 2 -2.10416 -0.937871 -1.66439 
173 1 -1.37635 -0.925821 -2.1323 
453 1 -0.525064 -1.1242 -1.43593 
109 1 -0.172236 -1.36027 -2.60502 
816 2 0.560954 -0.163195 -1.90886 
418 1 0.776578 -1.05779 -1.65256 
826 2 0.0498457 -1.64541 -1.864 
945 2 0.603965 -0.934603 -2.58217 
457 1 1.19578 -0.417548 -2.36976 
376 1 3.24864 -3.9924 -0.142116 
152 1 2.629 -1.54509 -2.03105 
937 2 1.81724 -0.438674 -1.62959 
184 1 1.6723 -1.45053 -2.36501 
164 1 2.37431 -0.454653 -2.2623 
118 1 3.52236 -1.8576 -2.56984 
59 1 4.39507 -1.33667 -2.37482 
171 1 4.39292 -1.29309 -1.32602 
98 1 3.48568 -0.881824 -3.13906 
344 1 -3.13746 -4.58673 -0.915635 
893 2 -4.57096 -3.66802 -0.0198764 
25 1 -2.07597 -0.0106411 -1.86592 
141 1 1.87901 -0.219536 -3.07908 
636 1 -2.17008 -4.18162 -0.724934 
593 1 2.55576 -0.928438 -0.851635 
916 2 -4.48234 -1.94112 -0.643386 
121 1 -0.286476 -4.25178 -1.09695 
29 1 -0.92818 -4.20513 -0.258469 
55 1 -1.38314 -3.6116 -1.19566 
135 1 -0.323928 -0.295351 -2.03575 
837 2 0.504807 -3.87892 -1.34266 
131 1 1.46357 -3.50335 -0.978493 
509 1 0.641145 -3.55462 -0.496543 
177 1 0.617639 -3.03448 -1.38673 
819 2 1.36852 -3.05038 -0.0762866 
128 1 3.62182 -0.830498 -2.09177 
374 1 4.65845 -3.35013 -0.730159 
110 1 2.02879 -3.60996 -1.84202 
16 1 2.22169 -3.05732 -0.337652 
818 2 1.73851 -4.28661 -0.957274 
126 1 2.76827 -3.73003 -1.0282 
81 1 2.43844 -4.50954 -1.51798 
415 1 1.43658 -0.860658 -0.536886 
311 1 3.47091 -4.59156 -1.0762 
227 1 3.79853 -4.27531 -2.01397 
290 1 4.53844 -4.3314 -1.13189 
188 1 4.56581 -3.26146 -1.71693 
192 1 4.20716 -2.39543 -0.911083 
176 1 -3.9155 -3.63024 -1.36928 
120 1 -3.33448 -2.24075 -0.40823 
172 1 4.09285 -4.39019 -3.0034 
175 1 -3.17865 -3.48457 -0.706529 
491 1 -2.18584 -3.0775 -0.476444 
51 1 -2.66153 -2.25173 -1.17127 
87 1 -1.71972 -2.49067 -1.54556 
27 1 -2.4588 -1.93016 -0.0479477 
852 2 -1.91419 -2.33776 -0.736236 
475 1 -3.99405 -4.65763 -1.48734 
853 2 -1.48519 -3.53233 -0.350345 
130 1 -0.378319 -3.30558 -0.556456 
101 1 -0.998262 -1.88272 -1.01287 
49 1 -1.15091 -2.71926 -0.502748 
107 1 0.368473 -1.32761 -0.701475 
947 2 1.54954 -2.92209 -1.63349 
223 1 0.688077 -2.32241 -0.364164 
68 1 1.59555 -2.43441 -0.894257 
239 1 0.0472366 -2.16386 -1.25026 
938 2 1.06771 -1.78923 -0.886104 
43 1 3.23011 -2.76971 -0.708454 
79 1 3.46616 -1.76924 -1.45073 
88 1 3.72612 -3.56303 -1.01383 
839 2 2.21421 -2.94982 -1.18963 
272 1 3.08379 -1.6639 -0.397457 
456 1 -3.50451 -0.446314 -0.546798 
91 1 4.67023 -0.664548 -0.511504 
74 1 -2.90875 -1.33293 -0.829628 
161 1 -3.92732 -1.49712 -1.09693 
663 1 -3.37817 -0.0622585 -1.66365 
514 1 1.2285 -4.44243 -1.74283 
84 1 -2.45438 -0.412313 -0.965801 
202 1 -1.82247 -1.36188 -0.923902 
166 1 3.87756 -4.2365 -3.98045 
10 1 -1.37329 -0.611248 -0.17424 
146 1 -0.533135 -1.03152 -0.326822 
911 2 2.21161 -0.392783 -0.210724 
302 1 4.38789 -4.32183 -0.0831945 
157 1 0.0834114 -0.347666 -1.03064 
122 1 2.03358 -1.70778 -0.245951 
824 2 -2.66399 -1.44215 -4.37644 
23 1 -1.97642 -4.25432 -1.78824 
196 1 -3.20677 -0.28171 -2.71856 
501 1 1.15936 -0.120198 -1.2765 
163 1 2.52999 -3.16271 -4.40596 
278 1 -4.03445 -4.19048 -0.355138 
58 1 -3.45176 -2.93767 -4.44704 
935 2 -4.33503 -0.233739 -3.81017 
34 1 -1.28502 -3.26497 -4.40751 
535 1 -3.64094 -4.6464 -2.43117 
992 2 3.90298 -0.075074 -0.36482 
381 1 -0.347942 -2.3016 -0.101194 
288 1 4.04706 -3.29677 -0.00352849 
987 2 1.25743 -4.2057 -0.160546 
813 2 -2.32044 -4.3611 -4.65586 
675 1 -4.07986 -2.96226 1.23404 
748 1 -3.68634 -4.20666 0.549552 
252 1 -4.4065 -1.91801 4.65164 
315 1 -4.61869 -3.78315 0.760244 
671 1 1.89889 -4.55261 0.927235 
907 2 4.05559 -4.52174 2.92642 
205 1 1.23089 -4.44333 4.20461 
245 1 -2.75581 -4.0611 1.49865 
904 2 -1.8774 -3.26105 0.99876 
798 1 -0.775794 -0.531753 0.592817 
856 2 -2.38852 -4.481 0.855833 
324 1 -0.678173 -4.18231 0.90503 
242 1 -1.03915 -3.35563 0.331075 
333 1 -1.14694 -3.06882 1.48469 
85 1 1.27792 -3.81877 0.554681 
909 2 -4.42247 -3.74102 4.71228 
125 1 0.849721 -2.88883 0.549529 
903 2 3.71428 -0.837666 4.44753 
832 2 0.128886 -3.03553 0.232061 
332 1 2.24197 -0.0827219 1.303 
248 1 2.28341 -3.54439 0.614367 
347 1 3.83768 -3.88836 0.819197 
322 1 4.39991 -2.74888 0.856108 
178 1 -3.20339 -1.22717 0.141948 
793 1 2.34259 -4.38775 2.52539 
881 2 4.09286 -4.55089 1.70603 
303 1 -2.42616 -0.213122 1.73263 
309 1 -2.75849 -1.65314 1.30207 
244 1 -3.516 -0.0902047 0.439221 
878 2 -4.27805 -2.19361 0.704539 
390 1 -3.42389 -2.26288 0.627859 
129 1 -2.7824 -3.37115 0.742225 
503 1 -1.07527 -2.33424 0.694009 
342 1 -1.92305 -2.80655 0.334564 
277 1 -1.91237 -1.55978 0.776004 
385 1 -1.05365 -1.25152 1.3118 
256 1 -0.316789 -3.11733 0.962511 
328 1 -0.367237 -1.53257 0.564297 
870 2 -0.510643 -2.24202 1.24407 
393 1 -0.169787 -1.64902 1.65018 
259 1 0.669416 -2.91135 1.55171 
372 1 0.345893 -2.06574 0.871204 
190 1 2.37673 -2.33625 4.27445 
838 2 -0.0175681 -0.738565 0.393393 
5 1 -1.90503 -3.90588 0.350655 
867 2 1.86982 -1.56194 0.688112 
843 2 3.5467 -3.10122 1.11419 
35 1 3.14761 -3.04955 0.357551 
384 1 2.09008 -1.9345 1.49441 
282 1 2.71378 -2.90038 1.30424 
365 1 3.60171 -2.31206 1.12821 
262 1 4.50754 -1.69704 0.82777 
379 1 -3.94668 -2.13084 1.66598 
106 1 2.79141 -2.02444 0.690512 
63 1 3.76487 -2.36344 0.114393 
378 1 -2.88557 -0.721625 0.940263 
279 1 -4.39959 -0.787296 0.632362 
717 1 -0.69188 -0.509102 4.05216 
610 1 -3.63738 -0.283354 1.58293 
976 2 -3.94673 -4.4423 2.0752 
240 1 -1.82201 -0.323305 0.903254 
353 1 2.13949 -3.98955 4.43167 
383 1 4.72111 -1.05279 4.43071 
877 2 -0.157656 -0.91615 1.25893 
329 1 0.14832 -0.188286 1.29964 
898 2 0.332027 -1.61346 0.0341136 
345 1 -1.53624 -0.539739 2.12579 
896 2 2.70377 -4.45904 3.45483 
86 1 -4.13973 -1.5415 0.0336534 
231 1 0.708965 -0.897066 0.891307 
677 1 3.19075 -0.246516 0.694137 
281 1 -0.420981 -2.97925 4.38628 
628 1 4.04062 -0.549175 0.360298 
38 1 1.70432 -0.675876 0.500206 
590 1 2.73277 -0.898224 1.36479 
879 2 4.65231 -0.0855253 3.12415 
326 1 1.72821 -0.965233 1.50893 
291 1 3.80448 -0.843488 1.36218 
209 1 1.63534 -0.854573 3.68944 
214 1 1.76872 -0.08426 4.37784 
331 1 4.37497 -4.42855 4.5993 
253 1 2.30385 -0.14277 2.27563 
908 2 -4.25566 -3.41539 2.02796 
338 1 -4.03971 -3.94812 2.88564 
321 1 -3.66495 -3.17442 0.121159 
884 2 -3.4318 -3.26572 3.22543 
605 1 -3.72362 -3.85871 1.56516 
6 1 -1.0033 -1.82147 4.48984 
224 1 -2.09119 -3.38103 1.89018 
607 1 -1.67533 -4.11073 1.30538 
387 1 -2.11402 -4.49427 2.26844 
389 1 -3.11994 -4.25529 2.42547 
859 2 -3.11941 -3.3917 1.92291 
382 1 0.0178692 -3.89948 0.206664 
375 1 -1.17967 -3.79919 2.25347 
695 1 -0.673665 -4.11505 3.05859 
251 1 -0.300272 -3.73356 1.85295 
891 2 0.127014 -3.71868 2.77278 
280 1 1.37021 -3.9191 1.6602 
858 2 1.4728 -2.4776 1.87019 
774 1 0.818198 -3.46891 2.37267 
887 2 2.09036 -3.33725 1.92765 
307 1 1.81471 -3.35199 2.74303 
319 1 2.59473 -3.83759 1.54443 
317 1 1.22284 -4.48531 2.61371 
254 1 3.60466 -3.75814 1.81119 
330 1 4.56026 -3.74992 1.69789 
263 1 4.40975 -3.74602 2.69484 
232 1 -3.68586 -1.40486 1.1245 
892 2 -2.52944 -2.27611 0.688738 
761 1 -3.01306 -2.67935 1.52986 
895 2 -3.78779 -0.948795 2.22363 
380 1 -3.7153 -2.92247 2.37182 
802 2 -3.07569 -2.40963 2.50871 
216 1 -2.85407 -3.25377 2.67611 
230 1 -1.9271 -2.42729 1.3888 
886 2 -1.12877 -1.23108 2.39998 
229 1 -2.25343 -2.39818 2.34902 
862 2 -1.51029 -2.84539 2.28434 
261 1 -2.56851 -1.69281 3.12902 
359 1 -0.748901 -3.06569 2.8203 
325 1 -1.05278 -2.03906 1.90761 
364 1 -0.275117 -2.70465 1.89318 
334 1 1.12455 -1.83177 1.36111 
225 1 0.879243 -2.17946 2.40479 
217 1 -0.417645 -1.87859 2.67376 
336 1 1.63996 -3.0074 1.26984 
874 2 1.62302 -1.4911 2.25803 
243 1 1.37571 -1.65325 3.22182 
308 1 2.04076 -2.17377 2.50473 
876 2 2.66691 -2.46598 2.05786 
257 1 3.60009 -2.69913 2.09378 
265 1 4.66552 -2.87387 2.36655 
869 2 4.24738 -2.99476 1.59358 
304 1 4.24412 -1.94577 1.91831 
313 1 4.07076 -2.03955 3.04448 
601 1 -4.4749 -1.08517 1.618 
247 1 -4.2529 -1.68106 2.44512 
268 1 -4.4153 -0.353719 2.26442 
273 1 2.17159 -1.22868 4.49154 
228 1 -3.16183 -1.56534 2.26845 
275 1 -1.98803 -1.40726 2.0461 
855 2 -2.99179 -0.708785 2.00423 
294 1 -2.43112 -0.697149 2.65183 
899 2 1.88352 -4.55759 1.91343 
356 1 -3.29569 -0.126073 2.4817 
581 1 0.598962 -3.61811 4.38899 
276 1 -0.506018 -0.637082 2.00484 
241 1 -1.43163 -1.89911 2.80338 
354 1 -1.57375 -0.966092 3.26616 
100 1 1.69405 -3.10093 4.07142 
286 1 0.399748 -0.427307 2.71246 
861 2 0.0114912 -1.17256 2.46396 
362 1 0.756838 -1.16931 2.00882 
310 1 1.53479 -0.746984 2.65086 
156 1 3.56214 -1.37976 0.536445 
971 2 -1.17072 -4.62785 3.56498 
233 1 3.22375 -1.64921 1.79375 
222 1 2.47129 -1.28806 2.31882 
787 1 0.225891 -4.42384 3.59615 
269 1 3.47708 -0.623836 2.35433 
669 1 2.81219 -0.299298 3.07392 
890 2 -2.82668 -2.86226 -0.0118204 
627 1 3.50101 -1.26182 3.18407 
300 1 4.33766 -1.09935 2.6185 
873 2 4.28504 -0.585929 1.98224 
386 1 -2.02467 -1.17153 4.25463 
770 1 -3.53953 -3.44858 3.9962 
996 2 -4.35454 -3.82674 3.6579 
968 2 -2.72199 -2.72018 4.38609 
215 1 2.63195 -0.352567 4.10688 
369 1 0.755223 -0.349364 3.56129 
689 1 -2.62308 -3.81299 3.5775 
80 1 -2.01615 -3.12739 3.99989 
220 1 -0.592224 -4.15639 4.19786 
201 1 -1.67472 -4.07322 4.24589 
629 1 -1.88353 -3.08729 2.95811 
306 1 -1.68666 -4.10713 3.14017 
299 1 -1.08184 -3.43655 3.71367 
226 1 1.14758 -2.7945 3.11068 
875 2 1.75071 -4.26198 3.36296 
50 1 -0.155973 -3.42637 3.57907 
249 1 0.960047 -3.73797 3.45578 
801 2 3.79868 -2.82185 4.36734 
179 1 3.10531 -3.20126 4.1121 
323 1 2.48241 -3.72803 3.45051 
341 1 2.81759 -3.29536 2.45498 
371 1 3.39419 -3.92551 3.09267 
284 1 -3.4106 -4.404 3.52088 
17 1 -4.38315 -2.96347 4.55458 
185 1 4.21227 -3.51198 3.86394 
343 1 3.46979 -4.13807 4.34779 
490 1 0.224604 -0.283935 4.53155 
880 2 -4.57874 -2.19261 2.97019 
301 1 -4.37793 -3.0319 3.38344 
358 1 -3.6534 -2.40397 4.07722 
267 1 -4.41952 -1.6706 3.6432 
165 1 4.18094 -0.612606 3.67418 
115 1 3.1462 -1.42021 4.13269 
807 2 -1.28483 -2.67904 4.2717 
191 1 -3.61003 -2.24237 3.08161 
318 1 -2.81223 -2.69518 3.4754 
349 1 -2.69753 -1.91838 4.2242 
871 2 -1.89305 -0.0179887 0.0364096 
366 1 -0.827173 -2.29992 3.51146 
235 1 -1.84719 -2.10987 3.78003 
297 1 -0.621411 -0.922313 3.05463 
264 1 0.370282 -1.43517 3.20875 
316 1 0.152625 -2.56691 3.14582 
305 1 0.708039 -2.66705 4.13296 
207 1 1.32246 -1.87056 4.1756 
902 2 0.77489 -2.03928 3.58033 
40 1 -0.0964944 -1.77561 4.06217 
885 2 1.85423 -2.3198 3.53799 
237 1 3.09183 -2.07739 2.70728 
620 1 -4.02199 -4.30253 4.30262 
211 1 2.61314 -2.74244 3.26273 
143 1 3.39522 -2.29525 3.79657 
339 1 4.37902 -2.50062 3.8715 
337 1 3.76357 -2.96806 3.06201 
258 1 2.52742 -1.36631 3.34785 
905 2 3.9576 -1.59211 3.84234 
742 1 0.521088 -3.96507 1.32043 
576 1 -3.54504 -0.324723 3.79158 
162 1 -3.43489 -1.41866 3.71846 
854 2 -3.87584 -0.96292 4.176 
246 1 -4.43734 0.0394068 3.97138 
298 1 -4.19365 -0.754873 3.14915 
103 1 2.62634 -1.04903 0.28962 
743 1 2.87548 -4.33819 0.662668 
368 1 -2.89504 -0.811739 4.57661 
866 2 -2.0392 -0.188294 3.20674 
981 2 -3.31187 -0.768877 3.05289 
221 1 -2.58351 -0.713975 3.6447 
883 2 0.0692063 -0.749532 3.6509 
860 2 1.33734 -0.812778 4.64731 
901 2 -0.812493 -1.508 3.60517 
236 1 -1.61491 -0.18105 3.94001 
182 1 1.08818 -1.63379 0.257325 
982 2 0.688588 -4.4472 1.96154 
638 1 -4.6817 -4.56517 3.4567 
367 1 0.655588 -1.15508 4.17898 
61 1 -2.79498 -4.40947 0.0576099 
900 2 3.40631 -0.449269 3.63605 
370 1 -2.32643 -0.780184 0.0203052 
210 1 1.90982 -2.44644 0.442155 
22 1 3.93514 -1.76572 4.60412 
255 1 -1.348 -1.67602 0.0277618 
548 1 -3.8536 0.366503 -3.97208 
811 2 -0.600266 4.18384 -2.1847 
985 2 -2.7651 0.4059 -2.52204 
591 1 -3.30012 1.45517 -3.50272 
208 1 0.923555 4.0578 -0.325244 
473 1 1.91356 4.27886 -2.6036 
942 2 4.43396 4.53247 -2.29586 
56 1 -2.07225 1.14938 -3.60447 
119 1 -2.08064 0.124945 -4.08979 
446 1 -1.90837 0.293609 -2.86253 
425 1 -1.19561 1.20278 -3.95849 
544 1 -0.494357 0.955591 -3.16998 
1 1 -1.23863 0.273515 -3.60834 
532 1 0.821074 2.08838 -4.46172 
529 1 1.4812 0.331819 -3.84568 
577 1 0.472228 1.36895 -3.30224 
585 1 -1.72859 0.358719 -0.667182 
437 1 1.91943 1.9459 -3.21301 
455 1 3.62743 0.0267055 -4.1248 
133 1 -2.80257 4.07649 -0.368755 
662 1 2.31073 0.913735 -3.42463 
967 2 2.75626 1.01786 -4.26071 
666 1 2.63268 4.66913 -0.485456 
944 2 4.24324 1.42082 -3.32885 
24 1 0.396144 0.513497 -3.90408 
848 2 -3.04887 0.334297 -0.961368 
447 1 3.5413 0.847462 -3.47322 
814 2 3.99648 3.37457 -4.41562 
526 1 4.51616 1.60838 -4.14138 
524 1 -4.12178 2.17393 -3.8121 
414 1 -0.456556 1.70117 -3.80907 
918 2 -3.2003 3.07657 -4.61148 
961 2 -3.98274 1.27411 -3.95692 
606 1 -2.25087 1.84096 -4.38659 
467 1 -1.41244 2.34463 -4.20733 
438 1 -3.05471 2.29819 -4.00786 
835 2 -2.35222 3.92245 -3.9565 
523 1 -2.11876 2.39677 -3.43669 
474 1 -1.71567 3.41834 -3.49355 
932 2 -1.28298 1.98764 -3.36083 
426 1 4.44926 0.425504 -0.673233 
404 1 0.0953838 2.36058 -3.20698 
521 1 1.10697 2.66053 -3.53785 
99 1 -1.32431 4.65209 -1.02666 
910 2 0.372614 3.03449 -3.64424 
412 1 3.18603 2.82899 -3.77691 
506 1 2.32928 2.34648 -4.11368 
785 1 2.08958 0.881101 -4.6415 
193 1 2.10131 2.99817 -3.32339 
439 1 3.56024 1.95899 -4.25935 
613 1 4.04734 2.31414 -3.55262 
674 1 4.45468 2.10817 -0.164337 
295 1 0.251433 1.26158 -4.65183 
794 1 4.40109 2.5548 -4.47417 
554 1 -3.83237 3.25011 -4.01403 
827 2 -3.05126 3.35146 -3.59724 
702 1 -3.11107 3.82497 -4.34945 
436 1 -4.15018 4.21153 -4.4266 
578 1 3.33998 3.77297 -0.545873 
510 1 -3.29308 2.6916 -3.19774 
469 1 -1.97307 4.3279 -3.13682 
18 1 -3.64443 4.42767 -3.54903 
421 1 -0.767853 3.66446 -3.75148 
912 2 -1.12604 4.16162 -3.08475 
57 1 -0.25337 4.58784 -2.90715 
405 1 0.677496 0.428148 -2.78089 
569 1 1.19738 3.68146 -3.44626 
448 1 0.12574 3.68839 -3.23976 
1000 2 2.68269 0.86074 -0.443634 
20 1 -0.673709 -0.0057289 -0.584204 
545 1 3.12571 3.76839 -4.26695 
657 1 0.539514 3.29462 -4.3927 
715 1 -0.844717 3.94224 -0.0206443 
915 2 1.67764 3.84996 -4.2514 
531 1 4.11629 4.14381 -3.66279 
410 1 1.53189 2.95498 -4.37193 
974 2 3.4091 4.66307 -4.45974 
913 2 3.30074 3.67353 -3.35641 
444 1 3.25856 4.5289 -3.51361 
413 1 -4.18559 0.175745 -2.96909 
543 1 1.27586 1.27822 -3.97778 
428 1 -3.68159 0.762834 -2.27715 
815 2 2.53047 3.18609 -4.19847 
496 1 -0.272851 2.60108 -4.35372 
579 1 -0.614772 0.676743 -2.1772 
868 2 -1.90063 4.6482 -0.0829 
566 1 -1.40377 1.1839 -2.90996 
409 1 -3.06665 0.482355 -3.32579 
373 1 -0.592111 0.576744 -4.57043 
580 1 -0.814023 0.751617 -1.25803 
952 2 -0.232589 0.242697 -2.8038 
481 1 -0.0177752 4.58254 -0.236246 
139 1 0.163192 1.30947 -2.37287 
442 1 0.447997 0.628652 -1.50916 
726 1 -2.81195 0.73704 -4.26734 
513 1 0.587417 1.64382 -1.53062 
586 1 1.59935 1.67503 -1.8572 
285 1 2.65051 0.605372 -1.77011 
432 1 2.84737 1.7487 -3.50483 
494 1 1.52206 0.992452 -2.89501 
922 2 2.34178 0.563907 -2.62914 
573 1 2.50514 1.3893 -2.55408 
929 2 3.22741 0.78167 -2.59148 
552 1 4.46331 0.448079 -3.56495 
502 1 4.17072 0.853968 -2.72722 
919 2 -4.60018 0.5791 -2.28945 
508 1 -1.31788 3.40631 -4.51769 
583 1 -4.31188 1.2409 -3.17867 
464 1 4.60332 2.68537 -2.06566 
547 1 -4.44227 1.34575 -2.07042 
486 1 -3.81432 1.9053 -2.69611 
452 1 -2.74189 1.16911 -2.71724 
476 1 -2.51913 2.45545 -2.44709 
565 1 -2.04431 1.88869 -1.68832 
923 2 -1.27252 1.56725 -2.17924 
518 1 -0.975533 2.80218 -3.29538 
950 2 -2.19569 1.74034 -2.93333 
533 1 -1.47741 2.26658 -2.54754 
562 1 -0.616552 1.85641 -2.75662 
431 1 -0.533762 1.67022 -1.66903 
484 1 -1.18753 2.55496 -1.56879 
595 1 0.916159 2.03358 -2.63143 
460 1 -0.145768 2.61246 -2.19948 
461 1 0.869866 3.08601 -2.6953 
540 1 0.851007 2.62087 -1.76518 
549 1 2.7408 2.51979 -2.70621 
504 1 3.23407 2.94046 -1.85186 
403 1 2.94081 2.94493 -0.903384 
831 2 1.79514 3.42712 -2.57589 
416 1 4.58436 2.04244 -2.78873 
951 2 3.66048 2.27172 -2.1829 
931 2 4.14354 1.59298 -2.13342 
949 2 3.98113 3.29029 -2.04797 
561 1 3.55003 1.75757 -2.81275 
516 1 3.86339 2.16117 -1.23084 
592 1 3.7151 2.94544 -2.76446 
472 1 4.57311 3.12887 -3.68811 
485 1 -3.51624 2.89517 -1.9037 
108 1 -3.55426 3.77421 -2.78442 
71 1 4.72774 3.73599 -2.15566 
844 2 -4.21923 3.62969 -3.28855 
500 1 -4.21006 2.83888 -2.90404 
928 2 -1.99368 2.67462 -1.74615 
466 1 -2.57325 4.42865 -2.31052 
534 1 -2.59085 3.40731 -2.85916 
550 1 -2.50093 3.39541 -1.85017 
402 1 -1.71494 3.32522 -2.46629 
470 1 -0.770781 3.42504 -2.46146 
697 1 4.61721 3.32724 -0.206951 
203 1 -1.44132 4.28076 -2.18529 
408 1 0.180943 3.71951 -2.12441 
116 1 1.30299 3.62429 -1.98761 
468 1 0.890559 4.3557 -2.578 
829 2 0.404625 3.32396 -1.47549 
479 1 1.63772 0.384871 -2.04764 
407 1 3.80903 4.0787 -1.62031 
914 2 2.11698 4.00608 -1.84699 
463 1 1.75978 2.56583 -2.38138 
123 1 2.33509 3.96442 -3.56789 
396 1 2.51078 3.4127 -2.28167 
7 1 -4.55085 4.30548 -2.93262 
834 2 4.4783 3.20943 -2.8346 
36 1 3.83478 4.07498 -2.67009 
940 2 2.06136 1.51623 -3.98986 
430 1 -4.30006 0.438298 -1.46742 
772 1 -3.82138 0.556773 -0.479752 
399 1 1.512 0.145641 -0.0807144 
571 1 -1.66712 0.999462 -1.3695 
994 2 -4.28876 1.95972 -4.59031 
975 2 -0.88379 3.63017 -0.800211 
768 1 -2.71976 0.258897 -0.161886 
954 2 -3.09615 1.01441 -0.298993 
64 1 0.506488 4.60452 -3.68136 
124 1 1.56846 4.57392 -3.80989 
927 2 -0.951312 0.746595 -0.362441 
930 2 -0.110625 0.48222 -0.93357 
47 1 2.93695 4.40552 -2.31476 
564 1 -2.39459 3.09442 -4.28591 
926 2 0.89585 1.07634 -2.05685 
755 1 -1.74866 1.17916 -0.0920206 
440 1 0.70353 1.61325 -0.219891 
530 1 -0.0669639 1.31426 -0.835601 
567 1 0.597324 0.46028 -0.39002 
767 1 1.74726 4.50808 -0.100612 
512 1 2.21636 0.132547 -0.890863 
924 2 -3.57552 4.55322 -0.0323442 
572 1 3.33869 0.614632 -0.936246 
424 1 1.22199 0.981502 -1.07601 
450 1 2.31485 1.34065 -1.16507 
779 1 4.15085 0.814158 -1.61133 
539 1 3.5004 0.207225 -2.11221 
497 1 2.43469 0.12906 -4.01484 
759 1 -3.51556 1.50672 -4.65608 
489 1 -4.04015 2.5749 -0.530922 
427 1 -3.50509 1.14472 -1.37303 
487 1 -4.18191 2.17676 -1.43555 
589 1 -3.73834 1.67133 -0.605731 
594 1 4.70029 1.45479 -0.865099 
417 1 -3.14966 1.74624 -1.99363 
729 1 -2.54781 0.886845 -1.76853 
584 1 -2.60749 1.5647 -0.733972 
445 1 -2.6438 2.55677 -1.26286 
462 1 -3.10652 2.25483 -0.185472 
459 1 2.91763 0.0347337 -2.94075 
955 2 -0.487335 2.19887 -1.00294 
429 1 -1.18234 1.81958 -0.829336 
699 1 -0.827542 2.82007 -0.435319 
102 1 -0.398288 4.45145 -4.32079 
519 1 -0.000329638 3.53108 -0.504961 
995 2 -4.68804 4.1767 -1.40434 
441 1 0.226701 2.59489 -0.992789 
527 1 1.31662 2.28079 -0.929032 
546 1 2.52745 2.18604 -1.60466 
568 1 2.10125 2.44664 -0.445867 
678 1 1.05262 3.2403 -1.01253 
925 2 1.58156 1.86567 -0.359497 
536 1 3.39468 1.43489 -1.76297 
936 2 3.85802 1.39398 -1.06185 
406 1 2.9158 1.9247 -0.672626 
563 1 3.71539 2.87463 -0.236997 
528 1 3.81614 1.22954 -0.288468 
477 1 -3.34289 3.94515 -1.70173 
830 2 4.68514 2.58374 -0.917667 
812 2 -3.33156 2.22381 -1.07651 
559 1 -3.19466 3.22903 -0.87016 
515 1 -4.22051 3.38161 -1.25602 
419 1 -3.91612 4.13754 -0.677134 
287 1 4.28785 4.14571 -0.62634 
511 1 -2.27051 4.27484 -1.38574 
973 2 -2.33943 3.46631 -1.06648 
422 1 2.81964 3.86957 -1.38902 
420 1 -0.416536 3.14897 -1.40825 
493 1 -1.85712 2.80213 -0.751353 
197 1 -1.68752 4.39502 -4.132 
480 1 -1.84172 3.86398 -0.426576 
454 1 -0.378884 4.19034 -1.3233 
800 1 -1.40068 3.53436 -1.54371 
397 1 4.13529 3.2008 -1.19817 
753 1 1.77436 3.45095 -0.392823 
155 1 1.74039 4.15067 -1.18007 
570 1 0.686719 4.1586 -1.37935 
667 1 1.95525 3.0141 -1.38493 
984 2 2.46285 3.80278 -0.603519 
435 1 1.00948 4.29249 -4.44053 
602 1 3.85612 1.05708 -4.56762 
624 1 -2.05525 2.18741 0.00115797 
587 1 -2.63549 4.71369 -3.99704 
946 2 0.0742587 1.10941 -0.0305279 
953 2 -3.93406 0.273278 1.00529 
651 1 -3.49811 0.917819 0.473909 
653 1 -3.23217 4.26083 1.72316 
296 1 -3.05199 0.610784 1.49342 
478 1 -4.24978 1.07867 1.06138 
639 1 -3.86024 2.57773 4.55674 
698 1 -2.31466 0.575831 0.69314 
260 1 1.38398 0.914077 2.0667 
705 1 -1.25902 0.334151 0.319923 
989 2 -2.35108 1.29975 1.24006 
941 2 4.11396 2.95478 4.20782 
673 1 -3.15388 1.72404 1.28741 
670 1 3.96049 4.03713 4.56774 
888 2 -1.40594 0.396602 2.21158 
788 1 -0.916821 1.0622 1.69404 
920 2 -0.74487 0.700568 0.889841 
340 1 -0.0120017 0.83783 1.35698 
423 1 0.731611 0.875737 0.454185 
83 1 0.0227361 1.61467 0.672566 
840 2 1.05836 1.19808 1.34829 
735 1 0.356379 1.82057 1.6072 
348 1 1.83927 1.01367 0.998713 
292 1 2.42341 0.848519 1.85406 
833 2 3.92177 -0.00226056 1.08023 
522 1 3.16954 0.691262 0.926482 
498 1 1.20237 2.55626 0.00928061 
541 1 -0.698641 1.35239 0.0348425 
730 1 4.6963 4.6505 2.47128 
708 1 4.27135 0.868498 1.16182 
796 1 4.33903 1.75185 4.3214 
623 1 3.18178 0.0443146 1.68795 
622 1 -4.06872 2.6163 1.53145 
789 1 -3.96696 1.89757 0.485077 
525 1 -4.47138 2.86361 0.556306 
684 1 -3.00508 2.18855 2.1781 
665 1 -1.54274 1.8688 1.81611 
560 1 -2.21196 2.17817 0.994805 
604 1 -3.27359 2.7093 0.818381 
959 2 -2.17127 2.57626 1.70819 
683 1 -1.521 1.35246 0.8655 
745 1 -1.38943 2.752 1.2482 
696 1 -0.630946 2.16545 1.42583 
219 1 -2.8167 0.268762 3.44521 
751 1 1.08231 1.78019 0.762618 
780 1 1.43642 2.77798 0.963637 
505 1 0.360598 2.65055 0.928367 
784 1 0.660405 3.42383 1.57737 
791 1 0.555093 3.4732 0.464749 
655 1 2.04942 2.08179 0.473237 
752 1 2.64147 1.59029 1.11554 
964 2 2.52263 3.65339 1.22605 
320 1 -0.193174 4.23361 0.736883 
746 1 3.58433 1.6336 0.692826 
616 1 3.20854 3.22342 1.31652 
758 1 3.88103 2.66836 0.751181 
645 1 4.47592 1.92167 1.13805 
728 1 -3.87347 3.54419 1.02888 
706 1 -4.13957 4.53409 1.3028 
980 2 4.6815 3.82934 1.18713 
363 1 -3.20656 4.34881 0.723251 
517 1 -3.72619 3.37882 0.0393337 
688 1 -2.60702 3.10935 0.0370535 
582 1 -2.2353 4.09438 0.504127 
724 1 -2.31498 3.25682 1.21503 
271 1 -4.49874 0.136268 0.188944 
603 1 2.02816 1.25932 2.77259 
614 1 -1.63352 3.15897 0.295575 
433 1 3.96048 0.512596 0.302437 
649 1 -1.16183 3.7921 1.10472 
998 2 -4.61207 4.41258 4.1869 
760 1 3.66129 4.66146 3.58167 
722 1 -0.550759 3.16675 0.579958 
270 1 1.04482 0.358892 2.80669 
599 1 0.892214 4.66281 0.547345 
672 1 3.95723 0.141454 4.28958 
765 1 1.50476 3.69427 0.631223 
537 1 2.28363 3.18215 0.401259 
764 1 -4.61227 3.3683 4.52224 
676 1 3.341 4.25609 1.04105 
681 1 2.68027 0.670407 3.51146 
557 1 -2.20565 3.95739 4.53571 
401 1 2.6616 4.02154 0.307968 
615 1 4.08776 3.72467 0.597961 
658 1 -4.3152 4.21783 0.198844 
352 1 2.42363 0.364851 0.233627 
388 1 2.81983 4.26705 3.0079 
710 1 -4.123 0.544109 1.94262 
736 1 4.68905 0.879257 3.51579 
747 1 -3.89764 1.64202 1.92533 
312 1 -3.29432 0.885057 2.51483 
757 1 -1.90466 0.65397 1.58095 
377 1 -2.46839 1.26436 2.12005 
716 1 -1.51749 1.18199 2.57357 
872 2 -0.533588 0.839711 2.6933 
714 1 -1.18963 0.057882 2.94902 
889 2 0.233099 2.0114 2.51586 
234 1 -0.184954 0.103836 3.23133 
720 1 0.180713 1.53443 3.29784 
969 2 0.601435 2.30316 3.26389 
357 1 0.270463 1.02638 2.46484 
686 1 1.74736 1.87701 1.68027 
619 1 0.942971 2.56054 1.89 
637 1 1.06367 1.79313 2.68737 
621 1 3.54452 1.25328 1.83507 
687 1 3.16354 0.596634 2.52379 
983 2 3.99333 1.05413 2.66778 
709 1 3.49216 2.24848 1.58712 
266 1 -2.19895 0.392657 2.55481 
635 1 4.55689 1.33833 2.02297 
682 1 -1.07893 2.20061 0.470449 
680 1 -4.3773 1.5458 2.8563 
640 1 -3.93319 2.58942 2.53937 
690 1 -4.20608 3.66388 2.00498 
797 1 -4.21343 3.32039 3.15118 
694 1 -1.98649 2.12299 2.62577 
641 1 -3.42436 1.70509 3.07056 
664 1 -1.5103 2.78487 3.43516 
970 2 -3.11977 2.81119 2.8064 
786 1 -0.577414 1.73527 2.45847 
775 1 -1.21634 2.74479 2.38102 
654 1 -0.438561 3.13479 1.63348 
756 1 -0.304537 2.49357 3.18079 
771 1 0.862044 3.91944 2.38463 
790 1 0.27267 3.00003 2.46988 
449 1 0.164247 3.19801 3.65884 
495 1 2.39715 2.7395 1.43314 
633 1 1.74584 3.48403 1.7028 
769 1 2.67628 1.76918 2.22119 
978 2 1.23516 3.18121 2.27998 
700 1 1.95729 2.68831 2.34571 
977 2 2.94139 2.69761 2.12724 
762 1 4.51891 2.31714 2.23741 
634 1 3.72679 3.15668 2.13803 
979 2 -4.60648 2.3406 3.06539 
725 1 -3.25196 3.55241 2.71469 
799 1 -3.25251 3.18852 1.81608 
781 1 -3.72583 4.45119 2.75125 
906 2 0.636574 0.236069 2.06316 
882 2 -2.34141 3.98754 2.24461 
631 1 -2.33242 3.10014 2.52361 
782 1 -1.55138 4.28349 2.92684 
792 1 4.13143 2.83795 2.98345 
574 1 -3.54242 0.408368 4.49154 
611 1 0.0302021 4.36853 1.6528 
643 1 -1.58355 3.61039 1.99259 
990 2 -0.560499 4.33852 2.85458 
731 1 3.57225 4.50113 0.100324 
719 1 -0.705478 3.60027 2.71224 
993 2 0.270272 3.76913 2.95406 
617 1 1.18857 4.4089 1.56676 
597 1 2.52659 4.39025 1.6939 
795 1 1.77292 4.03495 2.71876 
763 1 0.414532 4.0653 4.18369 
78 1 -1.15078 4.44941 4.40047 
644 1 2.65327 3.48193 2.25086 
972 2 3.36351 3.81522 2.00394 
661 1 4.46389 3.03589 1.46654 